18
Lattice="15.108652899924854 0.0 0.0 0.0 15.108652899924854 0.0 0.0 0.0 15.108652899924854" Properties=species:S:1:pos:R:3:momenta:R:3:forces:R:3:charge:R:1 energy=-1059.6680064847053 free_energy=-1059.6680064847053 dipole="-0.5091211297109591 0.08055732756662475 -0.19542280981249888" stress="0.0 0.0 0.0 0.0 0.0 0.0 0.0 0.0 0.0" pbc="T T T"
H        5.40016054       8.16611172       5.98440502       0.00000000       0.00000000       0.00000000       0.15494259      -0.03268250      -0.01333815       0.05153239
H        7.55927610       8.55372943       4.78412729       0.00000000       0.00000000       0.00000000       0.00054693      -0.01691135       0.15176948       0.04390489
C        8.76398608       7.41900373       7.76996354       0.00000000       0.00000000       0.00000000      -0.55481597      -0.22554555       0.21441494      -0.02897093
C       10.05845603       7.24244997       8.48814500       0.00000000       0.00000000       0.00000000       2.73472657       3.38688611      -4.27361620       0.57072812
O       10.05780265       6.54359135       9.55785645       0.00000000       0.00000000       0.00000000       0.28045991      -0.80905761       1.40278927      -0.46883766
O       11.06958161       7.83128704       7.96644492       0.00000000       0.00000000       0.00000000      -2.80423233      -2.29837070       2.38102271      -0.57429091
C        6.34300288       7.42073465       7.76791762       0.00000000       0.00000000       0.00000000       0.03718747       0.36620188      -0.43273126      -0.02864401
C        5.04609727       7.24342361       8.48369033       0.00000000       0.00000000       0.00000000       2.55952291      -3.33479491       4.11467108       0.57058555
O        4.03458017       7.83247705       7.96329450       0.00000000       0.00000000       0.00000000      -1.52222021       0.55953476      -0.38236989      -0.47378853
O        5.04490330       6.54229316       9.55185860       0.00000000       0.00000000       0.00000000      -0.69836847       2.48408607      -3.47896828      -0.56912496
H        9.71515379       8.16189261       5.99054583       0.00000000       0.00000000       0.00000000      -0.11987057      -0.03339836       0.02848415       0.06432605
H        7.55327307       6.72620333       9.41969530       0.00000000       0.00000000       0.00000000      -0.07091436       0.04308726      -0.10521846       0.07040823
C        8.76217772       7.93946949       6.46476151       0.00000000       0.00000000       0.00000000      -0.20517231      -0.06342926       0.17675096       0.00806904
C        7.55278023       7.13037296       8.41037951       0.00000000       0.00000000       0.00000000      -0.07216951       0.14371650      -0.22868586       0.00628399
C        7.55738512       8.17465813       5.80352491       0.00000000       0.00000000       0.00000000       0.02420157      -0.12668211       0.31044771      -0.02464862
C        6.35060663       7.94152496       6.46261286       0.00000000       0.00000000       0.00000000       0.26177818      -0.04061074       0.13703171      -0.00584281
H       10.94971351       6.51705994       9.94658211      -0.28213367       0.23909183      -0.45926650      -0.00593696      -0.00144791      -0.00242371       0.39402525
H        3.23558716       7.66625440       8.49396974       0.35902874       0.11983739       0.30936415       0.00033455      -0.00058158      -0.00003021       0.39428493
