18
Lattice="15.099991252438835 0.0 0.0 0.0 15.099991252438835 0.0 0.0 0.0 15.099991252438835" Properties=species:S:1:pos:R:3:momenta:R:3:forces:R:3:charge:R:1 energy=-1059.3133309303992 free_energy=-1059.3133309303992 dipole="-0.8846163073990583 0.7485461792438688 -0.3899078217537207" stress="0.0 0.0 0.0 0.0 0.0 0.0 0.0 0.0 0.0" pbc="T T T"
H        9.70793264       6.95080685       9.12218028       0.00000000       0.00000000       0.00000000      -0.11628219       0.03377311      -0.04667791       0.06813154
C        8.75989986       7.67952382       7.33625018       0.00000000       0.00000000       0.00000000      -0.61218596       0.08345287       0.09955081      -0.05103684
C       10.05431785       7.85239938       6.61898573       0.00000000       0.00000000       0.00000000       3.07829357      -3.51803072       3.90295682       0.57498182
H        7.54827439       6.57508920      10.33089401       0.00000000       0.00000000       0.00000000      -0.00289702       0.01283032      -0.15468754       0.04749589
O       10.05918583       8.58252272       5.56702072       0.00000000       0.00000000       0.00000000       0.57774674       0.98223002      -1.60185580      -0.45856576
C        6.34043134       7.68071383       7.33595326       0.00000000       0.00000000       0.00000000       0.45682523       0.23323165      -0.18812281      -0.02240608
C        5.04769294       7.85337302       6.61653733       0.00000000       0.00000000       0.00000000      -2.75259957      -3.47037094       3.97658671       0.57073401
O        5.04401430       8.58306364       5.56421210       0.00000000       0.00000000       0.00000000      -0.23384355       0.85005139      -1.37558628      -0.47729989
O        4.04382003       7.23619215       7.10526479       0.00000000       0.00000000       0.00000000       2.75497529       2.33631675      -2.15789379      -0.56239181
O       11.05848231       7.23651670       7.10872349       0.00000000       0.00000000       0.00000000      -3.12256181       2.46866590      -2.23449916      -0.53856669
C        8.75521554       7.16944358       8.64530995       0.00000000       0.00000000       0.00000000      -0.26506143       0.05272502      -0.15497564       0.01382430
H        5.38937001       6.94994139       9.11953743       0.00000000       0.00000000       0.00000000       0.12375665       0.03791768      -0.04085853       0.06739210
H        7.54941401       8.36929512       5.68318657       0.00000000       0.00000000       0.00000000      -0.12029370      -0.06505359       0.04302506       0.03835035
C        7.55033911       7.96837096       6.69378831       0.00000000       0.00000000       0.00000000       0.01119048      -0.21823518       0.45511424      -0.02512023
C        7.54876061       6.94301771       9.30758709       0.00000000       0.00000000       0.00000000      -0.00597769       0.11659520      -0.35295416      -0.02198208
C        6.34277924       7.16965994       8.64449876       0.00000000       0.00000000       0.00000000       0.22900236       0.05698517      -0.17296825       0.00880914
H        9.20652115       8.98846145       5.35446876       0.57484380       0.33521013       0.54863327       0.00145897       0.00588675       0.00458296       0.37011182
H        4.15070164       8.60157896       5.17667327      -0.56650221       0.10100817       0.51109921      -0.00154637       0.00102860      -0.00073674       0.39753841
