304
Lattice="21.63717 0.0 0.0 -0.003217390455063572 21.636489760783718 0.0 0.00016878672533660936 -0.0001687616282665579 10.28804999723128" Properties=species:S:1:pos:R:3:spacegroup_kinds:I:1:momenta:R:3:forces:R:3 spacegroup="P 1" unit_cell=conventional energy=-2132.9094654758037 free_energy=-2132.9094654758037 stress="-0.0015125735330677739 -0.000345133848270797 -0.0008626056860715215 -0.000345133848270797 -0.0028767914021394897 0.000906927692773778 -0.0008626056860715215 0.000906927692773778 -0.0021878728096093925" pbc="T T T"
Al      14.83457865      21.68891461      -0.01747436        0       2.06584801       1.03139496      -0.59008815      -0.47156842      -0.81229314      -0.54339420
Al       6.84180622      21.69590516       0.07262866        1       0.12837734       0.65994283       0.79247511       0.73514399      -0.54716708      -0.90069008
Al      16.24697518      20.09016332       7.72065685        2      -0.01351792      -0.48623245       0.26737631      -0.05161059       0.35831345       0.21692628
Al       5.39966041      20.14245012       7.81225884        3       0.02220982      -0.50315931      -0.10047813      -0.30438880      -0.18351722      -0.54221508
Al      16.19861561       1.56729613       2.60135313        4      -0.00218878       0.44530694      -1.03050318       0.61835276       0.18223406      -0.97612261
Al       5.43908774       1.53471915       2.63805559        5       0.41114659       1.01599098       0.43011774      -0.12108104       0.78090318      -0.38727426
Al       3.94837791      -0.00997668       5.11080462        6       0.27225813      -0.43362256       0.41956532      -0.67616425      -0.00842148       1.03503086
Al      17.74379398       0.04569194       5.22213096        7       0.14687136      -0.26801929       0.18760402       0.53737979      -0.36140816      -1.25214198
Al       5.36586310      12.38175956       7.67736822        8      -0.42741142       0.24956816       0.11760250       0.25560651      -0.24910496       0.68582448
Al       3.91631443      10.80806158       5.15454859        9       0.64475581      -0.56861775       0.50684993      -0.43527583      -0.62980517       0.66505772
Al       5.38586604       9.31069328       2.64036258       10       0.31739549      -0.40511409       0.77922375       0.76288665      -0.39990035      -0.26894244
Al      16.21935396      12.22904264       7.81102141       11      -0.24663642      -0.62106752       1.02026337       0.40595734       1.27340596      -1.04175123
Al      14.74361172      10.84530611      -0.01194544       12      -0.31544436      -0.98559442      -0.14906842      -0.52500408      -0.96114797       0.16773093
Al      16.20223907       9.39092987       2.66749035       13      -0.35931134       0.16249552       1.22503714      -0.41433633      -1.15495613      -0.43528328
Al       6.86266800      10.76937714       0.00098994       14      -1.27423743       0.61579492      -0.17637892       0.10614103       0.81858487      -0.11846623
Al      17.69052062      10.82494776       5.16336061       15      -0.51177260       0.38306476       0.75803874       0.42615984      -0.10266284       0.29559258
H       15.61817470      10.80945653       5.99315797       16      -0.11312344       0.05989891       0.10165379      -1.81390631      -0.32047692      -1.01297554
H       16.17927424      11.52861929       3.52523264       17      -0.07483814       0.12923641      -0.11704330      -0.42194757       2.32211623      -1.31131055
H        5.14327538       0.63574064       8.65727682       18       0.06567705       0.12773276       0.02339702      -0.39324430       1.20075856      -0.61577520
H        6.04410381      10.83693899       5.97933148       19      -0.12172892      -0.11633705      -0.28015657       0.91376258      -0.18880894      -0.51612387
H        5.72159530      11.42335926       3.52935479       20      -0.03729618       0.02606242       0.28319899      -0.18155483       0.09231459       0.00847309
H       16.37921946      10.14064356       8.55629272       21      -0.06330339      -0.03609884       0.10137268      -0.02029273      -0.48378164      -0.13669853
H       16.77114252      10.62109653       0.79981835       22      -0.09149606       0.19081391       0.15117367       1.41883564       0.14068107      -0.83366273
H        5.47960067      10.21483866       8.44006732       23       0.08602891       0.06003382      -0.19825627      -0.13088714      -0.23641019      -0.14443136
H       16.25681095      21.13702048       3.27937981       24      -0.01235732       0.07496482      -0.00623287       0.11371421       0.13502387       0.44870294
H       16.99130807      21.51124217       0.89264331       25       0.12131795       0.01424534       0.04253635      -0.66365921       0.43910963       0.44365467
H       16.61799586       0.63198359       8.56434173       26       0.10620745       0.16986040      -0.04788736       0.44236097       1.14832917      -0.46098976
H       15.59815840      -0.06249100       5.94854679       27      -0.07744116      -0.10676814      -0.01335540       0.85761199       0.01400089       0.55370509
H        4.75897741      21.78711151       0.96083815       28      -0.09128503      -0.07313482       0.30055667       0.70109088      -0.37667207       0.44125381
H        6.07529561      -0.07833705       6.05769174       29       0.05850527       0.10191236      -0.01779226       0.34702743       0.18256894      -0.21346356
H        5.35522876      21.08329776       3.32657810       30       0.00343356      -0.02726753      -0.03884213       0.16572992      -0.77295697      -0.35816650
H        4.84624990      10.91552950       0.96002662       31      -0.03348474       0.12686831      -0.15068443      -1.25560408       0.39690006      -0.49061783
H       12.97939160      19.77860839       5.40829461       32       0.16614048       0.09921276      -0.13747510       0.53912113      -0.16313272      -0.54894799
H        8.64528258      19.78924210       5.36972719       33      -0.13877337      -0.00055750       0.10211463       0.04654078       0.00791572       0.05404421
H       10.73059522      21.21653940       8.78959693       34      -0.16672491      -0.00018953      -0.12261466       0.32500924       0.13744082       0.32919790
H       10.71432933      19.64235923       4.08167943       35      -0.17402802       0.19053376       0.00156775       0.26293792      -0.06064936       0.66467577
H       12.94685058       1.95429655       4.85827442       36      -0.07044029       0.04062497       0.07991153       0.54797181       0.02798239       0.13773873
H        8.70831365       2.02717255       4.76316943       37       0.01557757       0.26569396      -0.08745885      -0.56463571       0.06282979       0.16845295
H       10.88346791       0.30775866       1.44325764       38      -0.08649514      -0.02792817       0.14794721      -0.16807044       0.20918783       0.78535956
H       10.72519855       2.46993038       5.97033807       39      -0.29768321       0.16998703      -0.35515851       0.37123469      -0.64642628      -1.36822680
H        2.10142390      19.91547456      10.00389677       40      -0.00364797      -0.01416810      -0.05130899       0.85344467      -0.16537073       0.38407051
H       19.45783686      19.87220765       9.98395616       41       0.10072914       0.22384365      -0.16014331      -0.67501605      -0.22564036       0.43477218
H       21.57179987      21.27604624       6.60921595       42      -0.01710913      -0.28588993      -0.12794843       0.04736567      -0.21515406       0.04822281
H       21.70741625      19.53687098       0.97683368       43      -0.05547806       0.21613513      -0.08082280      -0.44236202       0.27972051      -0.92844958
H        2.23138093       1.88605279       0.14004428       44      -0.03079016       0.04662915       0.12430234      -0.36755933      -0.29901836       0.45531772
H       19.55265648       1.74349883       0.18597891       45       0.08170411      -0.15905859      -0.05017652       0.27595212      -0.22139627       0.32215301
H        0.15166279       0.50703846       3.67466921       46      -0.04668827       0.09300286       0.21964765      -0.10181361      -0.30737444       0.59824512
H       -0.03562454       2.32872058       9.41068243       47      -0.07516629      -0.13698061      -0.23749769       0.25139467      -0.07998105      -0.09741806
H        3.57946398      18.30670439       2.84463652       48      -0.02472471      -0.07403393       0.10340032      -0.12498519       1.09262979      -0.18161287
H        3.65147112      14.11468460       2.69558333       49      -0.30994053      -0.05536429       0.01795173      -0.12399276      -1.41110461      -0.50250003
H        4.96497576      16.10887045       6.25226973       50      -0.14155699      -0.06522818       0.04464341       0.22052179      -0.12338014       0.56871177
H        3.31587040      16.28058330       1.59692621       51      -0.11071181      -0.11926971       0.00029775      -0.17843524       0.03785311      -0.45012041
H        3.43315446       3.41032891       7.44647199       52      -0.11631271      -0.03352991       0.24472562      -0.95030031      -3.59300753       1.51774807
H        3.62060850       7.62437602       7.46771045       53       0.18641024       0.14266582       0.19982581       0.02995617       0.03180066       0.03241280
H        5.14290581       5.48235468       4.03806060       54       0.08149774       0.09420253       0.06767078      -0.53145332      -0.37857652       0.65804593
H        3.25504852       5.50718686       8.70826206       55       0.00947918       0.01791184      -0.15091082       0.28743264      -0.54944828      -0.90750740
H       14.55049787      18.32044971       2.26833932       56      -0.06128018       0.21874047      -0.21149511      -0.20930713       1.32456773       0.96248557
H       14.22444196      14.03845642       2.17569202       57      -0.32241617      -0.18091316      -0.05050442      -0.31223759      -1.01119107       0.43126496
H       15.99203322      16.17931034       9.19357088       58      -0.04429609       0.16775426      -0.03967048      -0.07046873       0.20821724      -0.28161996
H       14.33352690      16.22103745       3.56806741       59       0.10819976       0.11021762      -0.09981643      -0.29066397      -0.35414929      -0.42848896
H       14.42497349       3.25898981       7.87777685       60      -0.00838678       0.09483263       0.04225341       0.16805022       0.46059246       0.39496131
H       14.34694092       7.62573766       8.08717663       61      -0.18421655      -0.05251608       0.21875483      -0.04222188      -0.70712463      -0.27886883
H       16.00286673       5.45013238       1.07732330       62       0.06539143       0.08228303      -0.40024075      -0.40298929      -0.13544888      -1.08318268
H       14.02898674       5.48909637       6.78425004       63      -0.09278691      -0.04836899      -0.04297487      -0.31348767      -0.31172195      -0.76510743
H        7.22031120      18.38629388       2.22341885       64      -0.06318851       0.18889319      -0.00065170       0.50765886       2.01475654       1.18429359
H        7.20373654      14.05834487       2.18053106       65       0.01066288      -0.06701928      -0.02307368       0.19308639      -0.71633710       0.59053140
H        5.81005350      16.28699591       9.15949581       66      -0.23142800       0.00072345      -0.19398301      -0.18336570       0.10812833      -0.58525808
H        7.68173749      16.14512408       3.47157686       67      -0.16530945       0.17843575       0.17617740       0.06936561       0.26922070       0.07838060
H        7.26140667       3.26313284       7.90485601       68       0.05099176       0.05212409      -0.17527354      -0.22508068       0.07547025       0.41832069
H        7.23317477       7.61326624       8.02427671       69      -0.20637496      -0.16827127       0.06579318      -0.12918524      -1.10152287       0.20441007
H        5.84700214       5.43411123       1.15091501       70       0.23599040       0.13209545      -0.04341057      -0.18054815      -0.21612560       0.34312644
H        7.60507558       5.46421855       6.80058936       71      -0.03881717      -0.04201028      -0.20457573       0.34423249      -0.22457752      -0.99420376
H       17.97553680      18.44055951       2.91118596       72       0.16388148      -0.02367473       0.03660803       0.12589848      -0.42755692      -0.19435635
H       18.09410292      14.05153421       2.89976106       73      -0.05299775      -0.15368483      -0.07250786      -0.00428450      -0.28989931      -0.42498933
H       16.82043850      16.17262070       6.35099309       74       0.17223030      -0.12125427       0.06456034      -0.33103914       0.10886642       0.54393295
H       18.31575594      16.17721864       1.58529627       75      -0.16703978      -0.11851630       0.01552994       0.15354860       0.29057365      -0.29088287
H       18.03991612       3.36184855       7.49262278       76      -0.28406321      -0.16182683       0.25968857       0.03742553      -1.23299531       0.40401222
H       18.30873681       7.60289764       7.44395790       77       0.16374140      -0.04158808      -0.05270034      -0.50692547      -0.83197227      -0.37553624
H       16.62346732       5.53091080       4.01955357       78      -0.01787678       0.02541673       0.24970630       0.32699098      -0.29907202       0.96636734
H       18.39278632       5.44103962       8.66120126       79      -0.08886094       0.00231558      -0.06159677      -0.02455225      -0.26683260      -0.15245825
H        2.18102586       8.93014338       0.28845032       80      -0.09685099      -0.22781942      -0.06688195       0.10233743       0.04955335      -0.13382948
H       19.51692423       9.10391965       0.16014288       81       0.04658856       0.14288120       0.03198370       0.19025377       0.07513494       0.32509435
H       21.63041832      10.38998388       3.70876196       82       0.01522849       0.03933724       0.07081516       0.03023036       0.31755126       1.08156754
H       21.70548623       8.36497888       9.44953031       83      -0.01631644       0.09918841      -0.03479574      -0.29995830       0.26362135       0.11741071
H        2.17414472      12.53327796       9.95609361       84       0.18608636       0.03034471      -0.24770150       1.51715500       0.43450800       1.01946605
H       19.42038684      12.57894747       9.98945962       85       0.03733467      -0.05015107      -0.23724387       1.11571603      -0.07825725      -0.46205880
H        0.03946486      11.41682287       6.49296520       86       0.00100399       0.10891238       0.10880740      -0.02698206       0.00918721      -0.09616054
H        0.00301212      12.85726448       1.03955538       87      -0.10421897      -0.11948795      -0.18262565      -0.14127852      -0.10760644      -1.01803820
H       12.97595389       9.12465357       4.92487771       88      -0.02689518       0.10159505       0.07116115       0.21963436       0.05763496      -0.37819361
H        8.77637602       8.62580936       4.68893671       89      -0.25413084       0.02919524      -0.06454606      -1.71713453      -0.63114461       0.90966183
H       10.86811797      10.44975538       1.42548649       90      -0.05408459      -0.34748028      -0.15753383      -0.45671618       0.22142884      -0.12167629
H       10.75261986       8.75355423       6.06233364       91      -0.11447145      -0.13309605      -0.20054362       0.62133473      -0.09397616      -0.60207150
H       12.94196968      12.79232186       5.44322815       92       0.15553427       0.21589446      -0.16269748       1.05683323       0.26145109      -0.43683145
H        8.62975847      12.48857310       5.38585007       93       0.01720774       0.02742906       0.03297680       0.40525530      -0.04673962       0.13801610
H       10.78850275      11.15752211       8.81288978       94      -0.18791852      -0.13489242       0.15099615       0.29830237      -0.32649483       0.79950112
H       10.80915726      13.00551000       4.13158122       95       0.06916956      -0.01296820       0.16684003      -0.11626976      -0.31042478       1.37960133
C       12.03048243      20.03085493       5.82438768       96      -0.09862509      -0.07768663      -0.66778525      -1.72211455       0.48776856       0.45792620
C       12.00370987      20.56897838       7.12436204       97       0.01138933      -0.50148123      -0.50556914       0.79322891       0.12692770       0.86759636
C       13.31991801      20.77491721       7.90334366       98      -0.69842374       0.47495459       0.34890527      -2.30256827       1.29991558       1.80412734
C       10.80079949      20.81836868       7.78957340       99      -0.71919771       0.19039260      -0.25753579      -0.53824717       0.02226046      -0.57161805
C       10.78122393      19.87677943       5.16636182      100       0.55435234       0.44819335       0.39597392       1.00681410      -0.27784972      -0.76255245
C        9.59053193      20.02390696       5.86445343      101      -0.77378571      -0.24266218      -0.59074985      -0.25775161      -0.05061863      -0.95418809
C        9.58943467      20.54027244       7.13630768      102       0.02655573      -0.20410953       0.08476636      -0.64588784       0.45808385       1.33762075
C        8.24189923      20.74418181       7.86794847      103       0.14683163      -0.26230792      -0.39320582       1.86256508      -0.16249314       0.31176419
C       12.04921375       1.64405494       4.35767986      104      -1.18799161      -0.14922601       0.06833469      -1.27649758      -0.28194340       0.13420857
C       12.07561639       0.93386539       3.13120432      105       0.59895009      -0.11359209       0.09920563      -0.22979389       1.20491342      -0.29329528
C       13.36898435       0.91917443       2.31149579      106       0.66690467      -0.09480392      -0.91929111      -0.50884831       0.11300790       0.63234512
C       10.84419244       0.72796243       2.47704995      107      -0.76390193      -0.92980966       0.21051948      -0.53161375      -0.48756225      -0.82937468
C       10.79359342       1.96880393       4.94126514      108       0.67922392       0.71057473       0.46208027       2.00079481       0.65296750       1.84709519
C        9.62530787       1.70537579       4.30303992      109       0.51171231       0.14588802       0.31382305      -0.94800555       0.07694194       0.02150795
C        9.59414025       1.10415472       3.05980546      110       0.09113353       0.21589316      -0.40382813       1.20603574      -0.57000038      -0.82849451
C        8.27479574       0.96810860       2.38764427      111       0.11397015      -0.45337125      -0.04312055       1.38476314      -1.40267088      -1.67279380
C        1.18194312      20.09126791       9.50183941      112      -0.58257716      -0.02545017      -0.20115587      -1.12795909      -0.40781799       0.81102444
C        1.17864101      20.52344966       8.19664345      113       0.08834171       0.39924136       0.50179059       1.10736727       0.24266290      -0.18418212
C        2.48768092      20.70481987       7.48833841      114      -0.05244647       0.61678043      -0.13004907       0.71413357      -0.07818898      -0.36172245
C       21.60964700      20.79011454       7.58870408      115       0.25641578       0.31484821       0.67702468       0.76131436       0.68266543      -1.62366183
C       21.60110706      19.85725641      10.19274492      116       0.50090914       0.27516102       0.27450097       1.72507577      -0.24343148       1.19158210
C       20.41434430      20.03136932       9.54174933      117       0.24326363      -0.03585498      -0.09515690      -0.02784994      -0.14714167      -0.53076221
C       20.45940922      20.40861771       8.19106332      118       0.44152322       0.08625689       0.15975002      -1.69240993       0.59865740       0.23756716
C       19.18178988      20.65948180       7.46731358      119       0.03263093      -0.53076508      -0.29560014      -0.74734995      -0.32758023       0.07681530
C        1.31583825       1.59568886       0.69256800      120       0.42522746       0.04640980      -0.35534702      -0.75579817       0.70971054      -0.72890388
C        1.30563866       1.11745478       1.99414435      121       0.07812941       0.31090747       0.05667358      -1.58354014      -0.51364525       1.12917800
C        2.51823558       0.90565337       2.80742023      122       0.26177111      -1.02394095      -0.02119276       0.05653381      -0.86585462       0.05177552
C        0.06091906       0.84419774       2.66232702      123       0.83171133      -0.46123642       0.24787930       0.92596249       0.17593290      -0.39080880
C        0.04577019       1.85381964       0.10091071      124       0.16447776       0.50071068      -0.30507773       0.55294820      -0.26567776      -0.18220094
C       20.48982548       1.51148951       0.72156378      125       0.16143554       0.02258848      -0.37020007      -0.43909651       0.43486263       0.33088204
C       20.46669614       1.05925800       2.07240606      126      -0.26218025      -0.06373910       0.06158248      -0.11115702       0.46674796      -1.15509387
C       19.13997489       0.91615198       2.75633272      127      -0.15682497      -0.37852072       0.05912381      -0.38602892      -1.14201256       0.63001768
C        3.81628282      17.41349659       3.36442916      128      -0.05228503      -0.23637822       0.02567125       0.13344347      -1.19045579       0.07071518
C        4.30666935      17.40248193       4.69987964      129      -0.20430167      -0.12470129       0.16899182      -0.58487604       0.88663948      -0.99348996
C        4.49028617      18.73587917       5.43625593      130       0.11211275       0.46926582      -0.72208730      -0.26653634      -0.53200689      -1.78926030
C        4.56571415      16.17454272       5.26064721      131      -0.42155443      -0.63032320      -0.16661714      -0.18962960      -0.35660567      -0.16214103
C        3.62440426      16.22244718       2.62550869      132       0.80942518       0.08955400       0.23365010       0.47968644       0.64525911       1.06494577
C        3.85671035      14.99215037       3.23512107      133       0.37803269       0.72213550      -0.76226821      -0.37422768       1.47458834       0.06421086
C        4.24622324      14.99291864       4.56237953      134      -0.39143377      -0.73627518      -0.04557236       0.77174588      -0.50121624       0.68312183
C        4.49798414      13.71770355       5.27235539      135      -0.30756440      -1.00356276       0.50392260       0.02789007      -1.03601851       1.11984959
C        3.71322333       4.20303867       6.90863524      136      -0.84973599       0.38715590       0.29625040       0.57013574       4.90050264      -0.10913622
C        4.19863079       4.20838591       5.60720165      137       0.14073105      -0.36999988      -0.03684597       0.53626525      -0.49271771       0.49523905
C        4.43488437       2.91001850       4.97319030      138      -1.18844130      -0.02055852      -0.09993294      -0.22517748      -1.31452134      -1.77761348
C        4.61144466       5.40572355       5.01571050      139       0.12871882       0.02697089      -0.45439585       0.32834176       0.22214882      -0.89272632
C        3.59217361       5.44862808       7.63682987      140       0.20357411       0.41451434       0.52825415      -0.37705746      -0.46136673       0.33821274
C        3.81041916       6.65904460       7.01119284      141       0.00858102      -0.39993712      -0.10377331       0.47790148      -0.90563346      -1.73068946
C        4.28731352       6.58457781       5.64148749      142      -0.10552719      -0.19700012       0.68582116      -0.19668337       1.46063443       1.74341374
C        4.49518784       7.90201826       4.97327519      143      -0.63146835       0.49223660      -0.17021377      -0.92090983      -0.32785052       0.52605333
C       14.69112077      17.38375157       1.82407151      144       0.52219987      -0.64419886       0.56445104      -0.55136167      -1.34662027      -0.69863152
C       14.97546837      17.38302575       0.46972283      145      -0.17519160       0.29749463      -0.33891008       1.65518860      -0.05022573      -1.20801923
C       15.17934048      18.69994953      10.07542926      146      -0.69730652      -0.07527521      -0.06016533       0.07781338       0.53362731      -0.26588917
C       15.45221497      16.19842540      10.13023630      147      -0.05173822      -0.01892326      -0.39885922      -0.65602428       0.35815005       0.59541369
C       14.45895473      16.16970698       2.47166792      148      -0.15754430      -0.59487791      -0.17003150       0.19203410      -0.26570352       0.57849689
C       14.50395443      14.96315973       1.74986791      149       0.15109646       0.04161150       0.47393055       1.13583319       1.85552617      -0.79052096
C       15.12593771      14.99432112       0.45144773      150      -0.21023381       0.60702939      -0.51000845      -1.14126870      -0.12288591       1.28856926
C       15.28122444      13.72211882      10.04593161      151      -0.03659164      -0.46795370       0.19115075       0.64420223      -1.21960423      -0.32193394
C       14.65988417       4.20195601       8.41645624      152      -0.08123187       0.23878154      -0.51291336      -0.45259393      -0.65752160      -0.37683970
C       15.13435354       4.15946591       9.73481217      153       0.06412435      -0.79079155       0.43907244       0.68266334       2.21917395       0.36031050
C       15.27854282       2.89405156       0.18565783      154       0.75161833      -0.07727084      -0.56792256       0.66349405      -0.35130324      -0.12766111
C       15.54693802       5.42173932       0.04958543      155      -0.03520236      -0.21503105      -0.02081726      -0.44528566      -1.16596577       0.58561319
C       14.39230328       5.42327398       7.78610009      156       0.05853185       0.24532115      -0.14425674       0.24322568      -0.03243220       0.21005514
C       14.59947268       6.61275919       8.45258983      157      -0.03694773      -0.20158394      -0.51315617      -0.10765922       0.94127823      -0.17423482
C       15.17070673       6.61688869       9.71489816      158      -0.26725358      -0.41412778      -0.10909229       0.13821167      -0.20108976       0.63780298
C       15.26557006       7.92645074       0.12623599      159      -0.07235736       0.90782786      -0.00963221       0.48329993       1.24356170       0.91050196
C        6.98300559      17.46641698       1.82934046      160       0.39145609      -0.68993968      -0.66768254       0.05632502      -3.37740950      -0.58661031
C        6.47266588      17.44529260       0.51083746      161       0.25530537       0.30192110       0.19234352       1.01242296       0.94451848       1.65443238
C        6.38595280      18.71829713      10.10982303      162      -0.12970439       0.34059147       0.13325169      -1.66501388       1.14884258      -1.76244722
C        6.22780325      16.28667684      10.14675241      163       0.13103777      -0.18554458       0.79225564      -0.34756359      -2.12985597      -0.57427130
C        7.28583663      16.22482698       2.46233210      164       0.72670300       0.46206370       0.44550425      -0.94398131       0.16081264      -0.89477311
C        6.98538135      15.01660677       1.77521711      165      -0.77046045       0.12685100      -0.67514858       0.43841507       1.51498678      -0.08447959
C        6.53182630      15.04242802       0.45320902      166       0.32955487       0.37421202       0.00234549       0.17472827       0.89077634       0.89130386
C        6.37895482      13.76435783      10.05374003      167       0.46461109      -0.34040452       0.13929020       0.30279217      -1.37375291       0.25967107
C        7.00861220       4.19584823       8.43084556      168      -0.42154435       0.06658634      -0.43599858      -0.29337140      -0.83647982       0.44339623
C        6.45608292       4.20549244       9.74773724      169      -0.06726803      -0.13993161       0.70557897       0.46138038       0.63439917      -0.62503307
C        6.27463185       2.92289392       0.15088339      170      -0.59275679       0.17788473       0.06465914      -0.35674057       1.36097291       0.52531867
C        6.22790358       5.40783067       0.14413757      171      -0.37132534       0.14311624      -0.15892929       0.29398780       0.55776044      -1.06475688
C        7.23634631       5.37143240       7.79120392      172      -0.22726165       0.64537899       0.20469384      -0.34835737       2.62423201       1.16196293
C        7.00829659       6.61356057       8.49123085      173       0.72842351      -0.25823018      -0.01960517       0.46254130       0.39214887      -1.17139325
C        6.53031915       6.65094913       9.79077713      174       0.08673263       0.48010785      -0.53874471      -0.37553349      -1.68480460       0.57949433
C        6.34219451       7.93085750       0.23214931      175       0.29996793      -0.54176579       0.44572330      -0.26223265      -0.70529249      -0.07835171
C       17.81866678      17.43293032       3.31881187      176      -0.21222256       0.20680219      -0.17766398      -0.57254255       0.12921453       0.38801194
C       17.29093957      17.41582704       4.65055672      177       0.50085816      -0.33855938       0.64234940       0.65309777       0.09547783      -0.25451081