304
Lattice="21.63717 0.0 0.0 -0.003217390455063572 21.636489760783718 0.0 0.00016878672533660936 -0.0001687616282665579 10.28804999723128" Properties=species:S:1:pos:R:3:spacegroup_kinds:I:1:momenta:R:3:forces:R:3 spacegroup="P 1" unit_cell=conventional energy=-2138.1647102426614 free_energy=-2138.1647102426614 stress="-0.003251660239018686 0.0001743058280697519 0.00039931442457324983 0.0001743058280697519 -0.0011204137876661027 0.0007912362648224827 0.00039931442457324983 0.0007912362648224827 -0.0027496109642179386" pbc="T T T"
Al      14.74721736      21.63352549       0.00441433        0       0.60258844       0.05174341      -0.14517590      -1.07489385      -0.14680773      -0.02914033
Al       6.90769936      21.63498426       0.00085761        1      -0.29744036       0.12098049      -0.19878993       0.40892026       0.03633938       0.44308452
Al      16.24857902      20.11725386       7.72329310        2       0.31408893       0.40013455      -0.02974447      -0.31686810       0.48773195       0.06296703
Al       5.39944085      20.11596481       7.71340054        3       0.00416222       0.19976323      -0.60310728       0.07810146       0.62535106       0.12773819
Al      16.21250434       1.51744953       2.56451925        4      -0.31109978      -0.08409625      -0.24802831       0.28095049      -0.17028847       0.50681010
Al       5.40436844       1.51210635       2.58815361        5      -0.27577855      -0.29062405       0.06081185       0.23813937      -0.16839315       0.03057624
Al       3.91285820       0.01740494       5.16467592        6       0.35299085       0.07403209      -0.22072589      -0.27886051      -0.36432807      -0.10926609
Al      17.75685884       0.00043704       5.14266967        7       0.43225099       0.06993697      -0.02295203       0.05197375       0.40509788       0.58267365
Al       5.39953432      12.33324993       7.71367843        8      -0.05142021       0.02509088      -0.36947845       0.11967305      -0.01495896      -0.01551603
Al       3.88870844      10.78262497       5.16571977        9      -0.21561497      -0.67023632       0.49432816      -0.04987516       0.17344993      -0.13867183
Al       5.43695117       9.31033622       2.57762058       10       0.47535320       0.25824051      -0.11556446      -0.35994372       0.13879216      -0.19563062
Al      16.26572403      12.34260145       7.73764348       11       0.71455965       0.00191565       0.04806223      -0.47350254      -0.09226752      -0.25114994
Al      14.73530349      10.82530602       0.01842187       12       0.49501259       0.05184364       0.31064504      -0.72753160       0.20396484       0.29361383
Al      16.21465270       9.30131692       2.58156413       13       0.07587609       0.05455643      -0.12270027      -0.08098747       0.27558890       0.43268159
Al       6.90474332      10.85314962       0.00417152       14      -0.49878802       0.57364353      -0.16195027      -0.13829838      -0.18795121       0.07583703
Al      17.74767417      10.79791531       5.13225547       15      -0.13063410      -0.24128928      -0.51665128      -0.55235552       0.14084230       0.30109845
H       15.54062421      10.74574121       6.12462365       16       0.01665310       0.00106392       0.02944176       0.22632755      -0.05018505      -0.20552517
H       16.21179345      11.44786025       3.39295711       17       0.04433982       0.02284393      -0.05868220      -0.08244114       0.61502290      -0.29712801
H        5.31461336       0.67957030       8.70643641       18      -0.02223553       0.04669059       0.06172632       0.01506363      -0.28865771      -0.08172870
H        6.04145912      10.74917039       5.98219557       19      -0.01560921      -0.00622037      -0.03054148      -0.02782510       0.02864926       0.08883926
H        5.50056314      11.47636942       3.55561279       20       0.11608493      -0.03108004       0.04316241      -0.04643592      -0.24938056      -0.06590505
H       16.31466934      10.23603596       8.57099900       21       0.02182315       0.03340953      -0.00039506      -0.05562682      -0.14737248       0.08886266
H       16.79340203      10.79685174       0.76726105       22       0.01769819      -0.04485067      -0.02441863       0.29011089       0.02484161       0.17155933
H        5.38723816      10.18385712       8.57799080       23      -0.03155979       0.02130178      -0.01385763       0.00303513       0.32704917       0.14271877
H       16.15007631      20.98946615       3.51832976       24      -0.01337569       0.04067641       0.10135341      -0.18231005      -0.70476860      -0.40780419
H       16.82265709      21.63936730       0.81963182       25      -0.11713383       0.00264743      -0.06616190       0.89846617      -0.20607965      -0.43266477
H       16.16256263       0.66110391       8.60332189       26      -0.03424341      -0.04547668      -0.00917702       0.19104729      -0.01964056      -0.21426122
H       15.67867150      -0.00453326       5.83933628       27       0.05124279      -0.04447840      -0.10714284      -0.28565548      -0.02280259       0.16914235
H        4.74236874      21.56693800       0.92550444       28      -0.09457271      -0.05306733      -0.02197446       0.97125593       0.15534917       0.33746779
H        6.01661454       0.07150034       5.96836213       29      -0.06646742      -0.00497515      -0.08615104       0.61010943       0.06863096      -0.21699542
H        5.37431525      20.98021274       3.38605694       30      -0.06885012      -0.01704946      -0.12333743       0.11392724      -0.05990729      -0.04758175
H        4.77451498      11.01208521       0.94643666       31       0.02176966       0.12221983       0.14831762      -1.25521704       0.33022980      -0.54622155
H       12.98986851      19.78799569       5.42575250       32       0.07093987      -0.07913255      -0.02930223       0.19438630      -0.05760666      -0.13088297
H        8.67150004      19.81640795       5.44327746       33       0.01245669      -0.08169701       0.05959418      -0.17133484      -0.07631937      -0.10771743
H       10.89725170      21.23996080       8.85396237       34      -0.00844012       0.05296417       0.14134226      -0.21260391       0.06013825       0.07822331
H       10.83893057      19.47028569       4.17875492       35      -0.10224395      -0.00460555      -0.04437800      -0.16644335      -0.24280961      -0.26763338
H       12.94622203       1.82402327       4.91569466       36      -0.07197245       0.03272364       0.02938248       0.09128935       0.06677647      -0.14728098
H        8.64885976       1.81812151       4.82330911       37       0.01608053       0.00034045       0.04242156      -0.50285517       0.11102288       0.34499166
H       10.78956715       0.50868127       1.37861929       38       0.07126719      -0.01941855      -0.16837671       0.16971396      -0.27800859      -0.14584517
H       10.79710864       2.24958964       6.02185054       39      -0.01661388       0.06725143       0.15135850       0.02375690       0.18181279       0.45418338
H        2.14891920      19.80965441       9.96287146       40      -0.01535198      -0.06923351      -0.03460596      -0.02451161      -0.16641646       0.07099015
H       19.47272060      19.79724799      10.05171447       41       0.05470501       0.04069978       0.04276440       0.17292116       0.07339269      -0.12408871
H       21.59130643      21.29309178       6.63991147       42      -0.07036936       0.09765877      -0.13265419      -0.04752357       0.01519878      -0.47678417
H       21.64937594      19.48876436       0.97964515       43       0.07533984       0.04709476      -0.05462949       0.01399958      -0.06375596      -0.43507620
H        2.13269906       1.93678272       0.33757472       44      -0.04059439       0.08728465       0.02688710      -0.18316290      -0.32720014      -0.02727167
H       19.51727778       1.87212003       0.27258176       45      -0.08659599      -0.03710629       0.05514186      -0.62701668      -0.05232205      -0.10078109
H       -0.00429834       0.26452201       3.66850400       46      -0.01105234       0.00541551       0.01245878       0.00856677       0.24412541       0.19551656
H        0.01200518       2.20285616       9.33769710       47       0.02776466      -0.02957507       0.03573040      -0.06643808       0.05775932      -0.03718210
H        3.46921790      18.39253476       2.88767978       48      -0.09955506       0.05873013      -0.05166565      -0.08486340       0.32896502      -0.30082773
H        3.58058764      14.05322749       2.87540892       49       0.06098965       0.15009561       0.07142896       0.12940813       0.18749389       0.00493182
H        5.02531254      16.25885204       6.29962846       50       0.10731701       0.10044998       0.05009537       0.04560991       0.13463875       0.02603534
H        3.31188973      16.24639085       1.59545946       51       0.02503787      -0.03347979       0.00990518      -0.29982458      -0.16439049      -0.14573507
H        3.58169337       3.24938721       7.38811441       52       0.01667384       0.04368427      -0.02027299      -0.02767952       0.15222562       0.03954288
H        3.63476333       7.59608311       7.45024846       53      -0.07109695      -0.07358123       0.08399822      -0.18569308      -0.15265696      -0.07742243
H        5.04724658       5.49113428       3.98141901       54      -0.00927138      -0.01961355       0.14529437      -0.13444650      -0.19219792       0.40969547
H        3.26331020       5.38215827       8.67363022       55       0.06656454       0.00685133       0.08718577      -0.11064459       0.10741798      -0.07785608
H       14.42099634      18.43045090       2.24489122       56      -0.02543465       0.04305236       0.05076589      -0.11992299       0.06016553       0.08213721
H       14.46640822      14.06179323       2.31714927       57      -0.04081083       0.15311466       0.07138230      -0.19109091       0.41763371      -0.09995579
H       15.83686430      16.26969562       9.14020662       58       0.04174680      -0.08589338      -0.00623860       0.10540937      -0.28227587      -0.33575669
H       14.06213181      16.26419763       3.49788896       59       0.04058441       0.06669904       0.03427456      -0.12647533       0.08124321       0.29602887
H       14.39405493       3.28745528       7.90664540       60       0.03817285      -0.13901010      -0.04057953       0.07042020      -0.28472460       0.27821862
H       14.56579816       7.54402834       7.94752791       61       0.11691772      -0.02795959      -0.07038065      -0.23303639       0.33374096      -0.28350834
H       15.91721869       5.41573747       1.07342757       62       0.10456113      -0.03294211       0.19423764      -0.08648774      -0.11571998       0.24647201
H       14.03425671       5.39051686       6.77667655       63       0.01813073       0.04955090       0.17931202       0.08794769       0.03705133       0.24848268
H        7.31719302      18.33674752       2.22441558       64       0.04195564      -0.00686695      -0.03782513      -0.09454241       0.19083418       0.10968269
H        7.27113699      14.09099653       2.29969346       65       0.04138315      -0.02741155      -0.08374324       0.01406007      -0.36890542      -0.13026370
H        5.71011455      16.12333176       9.17238833       66      -0.13287544       0.07355850       0.09216125       0.16875711       0.35387993       0.00748295
H        7.64894471      16.25425086       3.44696410       67       0.01462489      -0.04171861      -0.03148161      -0.06152727      -0.17894185       0.08065706
H        7.16817907       3.25136888       7.94883336       68       0.01018951       0.08491574      -0.02732720       0.11782881      -0.09241312      -0.12135033
H        7.08859356       7.58614754       7.99439532       69      -0.10249446       0.08509822       0.02664770       0.28507744       0.27310987      -0.26623078
H        5.86092366       5.40569671       1.12966732       70      -0.07987748      -0.01480750       0.01466736      -0.35668161      -0.04360990       0.15782874
H        7.62123717       5.42458860       6.84449105       71       0.01328100       0.05854679      -0.15551105       0.24067923       0.08605313      -0.91158300
H       17.99466060      18.39328533       2.86549096       72       0.00022354      -0.02847635      -0.10496350       0.21830703       0.14356927      -0.33536545
H       17.92442930      14.05506563       2.83518986       73      -0.09448224      -0.05210197       0.03603817       0.23030093      -0.24454430      -0.11279160
H       16.59803772      16.26287787       6.27388460       74      -0.08977122       0.03581210       0.13197141      -0.10092926      -0.08097686       0.20587369
H       18.44337384      16.21477908       1.60514029       75      -0.03036794      -0.03261294       0.05703788      -0.01715869      -0.03800187      -0.10601492
H       18.08241234       3.26422582       7.39836707       76       0.01222154      -0.17508885       0.01190690       0.03964881      -0.36131063       0.21941813
H       18.03421375       7.60799050       7.29152450       77       0.08085001      -0.04029076       0.08980692       0.24710530      -0.20796612       0.39405222
H       16.58758217       5.41246065       3.98959492       78      -0.04981769      -0.10242777       0.01241124      -0.02544737      -0.18185330      -0.22330304
H       18.40592142       5.43197774       8.64407239       79       0.02679588       0.01451775       0.01937058       0.16946418      -0.12410058       0.27272520
H        2.16244305       8.89320941       0.30807368       80       0.03587453       0.04422007       0.04487789       0.18667713       0.31411809       0.00443317
H       19.51886200       8.93724223       0.28402581       81       0.01789016       0.08313476       0.09056294      -0.20766514       0.17682527      -0.00297539
H       21.67380207      10.43937663       3.72455953       82      -0.05556330      -0.01906879      -0.05896859      -0.09178060       0.08100850       0.09883379
H       21.63750872       8.62387997       9.36074735       83       0.01561820       0.07855288       0.11166193       0.12249315       0.06139342       0.30306716
H        2.20320476      12.60764295       9.99901562       84      -0.07006806       0.03185826       0.02660296      -0.16146066       0.20708678       0.04486919
H       19.48362537      12.67068634       9.94441875       85      -0.03810898      -0.01317938      -0.01376161      -0.05625232      -0.01853283       0.25399361
H       -0.06845234      11.28344117       6.54726490       86       0.08337848      -0.03400462      -0.02977316       0.37258031      -0.21460280      -0.32341680
H       -0.01776130      13.00416503       0.96163259       87       0.00677328      -0.06666491      -0.00366693       0.04337832      -0.09389193      -0.18245870
H       12.98841493       9.03167176       4.92745081       88      -0.00871151       0.02387708      -0.02213004      -0.26955992       0.05867444      -0.31625369
H        8.68067639       9.02879064       4.85417812       89      -0.00658344       0.01383230      -0.01975085      -0.23724565      -0.26083031       0.16387989
H       10.81285993      10.35645696       1.44405065       90      -0.01900090       0.05363914      -0.09541610       0.07201884       0.25266245      -0.49634048
H       10.84979702       8.65755092       6.10340870       91      -0.00311822      -0.01756311      -0.01646819      -0.18853540      -0.14732864       0.03929920
H       12.95978696      12.53645758       5.34819100       92      -0.04967837      -0.05992506       0.01263286       0.16642345       0.15273553       0.04262418
H        8.66571167      12.57171058       5.37228288       93      -0.05209480      -0.01742999      -0.05380846      -0.19145979       0.04294794       0.00187398
H       10.86190594      11.17713011       8.83232507       94      -0.01805077       0.00007959      -0.16952446      -0.10526433       0.03769494      -0.14789557
H       10.84871469      12.96260050       4.17658269       95       0.00525194      -0.02983963       0.05229736      -0.14736402       0.13355069       0.10449400
C       12.03474735      20.00560151       5.88315729       96      -0.29011122      -0.46530664       0.20564221      -0.62169900       0.11606776       0.13907897
C       12.01230403      20.54026012       7.18756364       97       0.48389528      -0.45896426      -0.36291937       1.07885667      -0.40898077      -0.03868639
C       13.31498467      20.69549005       7.93382895       98      -0.26310210      -0.28111448       0.03103181       0.09121981       0.55613295      -0.20228231
C       10.83631544      20.83457979       7.84923370       99      -0.06284399      -0.11549598       0.00898530      -0.29795223       0.06736144      -0.17289625
C       10.82116677      19.77038057       5.21626702      100       0.55039639      -0.26895249      -0.08863737       0.47633490       0.55141245       0.71908630
C        9.62986573      20.01748635       5.90596822      101       0.09161294      -0.32907439      -0.13020761       0.05150476      -0.02295118      -0.41702076
C        9.63068034      20.55406574       7.19689606      102       0.01726225      -0.02654927       0.15195726      -0.19406735      -0.02142565       0.51103910
C        8.32733900      20.71931159       7.91251145      103      -0.01915555      -0.17121478      -0.07959568      -0.48873200       0.29986218       0.13817056
C       12.01595824       1.63362771       4.38211585      104      -0.01433102       0.10171479       0.03709246       0.10767292      -0.25662567      -0.13617902
C       12.02771144       1.11932276       3.08009907      105       0.00783467      -0.11168687      -0.09772862       0.34482626      -0.21070026      -0.36429108
C       13.34575273       0.95166077       2.36029122      106       0.07114663       0.27007132       0.48178906      -0.98930230       0.07139401      -0.30383891
C       10.82170053       0.81218104       2.41573453      107      -0.04501247       0.00111898       0.14000317       0.44226197       0.42859914       0.47184481
C       10.80503720       1.86626367       5.01484151      108      -0.35005233       0.18718648      -0.01226557      -0.32305330      -0.05404423       0.31980145
C        9.59794624       1.59604882       4.38215434      109      -0.42905080      -0.44353847      -0.14836832       0.74135162      -0.22577635      -0.68038457
C        9.62890572       1.07161825       3.07670423      110       0.15364457      -0.34363626       0.00027497      -0.70486574       0.52880782       0.32784703
C        8.32643923       0.96435845       2.35985136      111       0.01321343       0.13653444       0.11179573      -0.35939541      -0.33853901       0.09881442
C        1.17697044      19.97475044       9.49914683      112       0.03492086      -0.47980151      -0.06894440       0.66728339       0.07299806       0.45603425
C        1.18183588      20.50033161       8.20423957      113      -0.34358461      -0.32973635       0.02706674      -0.16326970      -0.06152310       0.01361043
C        2.48173868      20.69225250       7.50535208      114      -0.12894657       0.01322040      -0.24461620      -0.02488406       0.09331170      -0.46111662
C       21.60271476      20.78798229       7.59076306      115      -0.14348877      -0.20233607       0.28655586       0.12706530       0.22110266       0.10201909
C       21.63656844      19.76372729      10.20027499      116      -0.12307367      -0.19527377       0.25021801      -0.34736703       0.28141841       0.19386631
C       20.42402903      20.00898317       9.54593873      117      -0.28272934      -0.28894849       0.38732340      -0.47117606      -0.46338889       0.58398057
C       20.40064999      20.47513885       8.23238864      118      -0.14304689      -0.80836089       0.23992129       0.60519682       0.32296868      -0.27658379
C       19.13908194      20.69230807       7.49425048      119       0.17475695      -0.16063891      -0.06675008      -0.07611078       0.18447710       0.10148421
C        1.17779478       1.58962397       0.75644588      120      -0.20659931       0.04182396       0.11983477       0.86633282       0.54029844      -0.00200777
C        1.20398933       1.06510251       2.06404419      121      -0.19658438      -0.19899611      -0.09897048       0.04516151      -0.05151443      -0.39624830
C        2.51307744       0.85454772       2.74744150      122       0.03600276      -0.70742629       0.49513303      -0.36605065       0.24125413       0.81239978
C        0.00519776       0.79888093       2.72136455      123       0.07539169      -0.29927670       0.27790927       0.00407511      -0.65762326      -0.19099763
C       -0.00970677       1.83264016       0.07206623      124      -0.37237643       0.03271441      -0.13098736       0.24174023      -0.35839498       0.40596318
C       20.43903009       1.59117560       0.74455264      125       0.17179882      -0.07492270      -0.04138195       0.17597929       0.05817801       0.42552253
C       20.44722278       1.08667056       2.07036845      126      -0.00446406       0.30679804      -0.20091953      -0.34801446       0.32450057      -0.53189665
C       19.14727900       0.93313400       2.77407643      127       0.33602708       0.20713696       0.48340995       0.18251858      -0.56521592       0.48150303
C        3.74321002      17.44386455       3.31262418      128      -0.64753861      -0.34220227       0.05082417       0.42233244      -0.61802245       0.64544808
C        4.31597901      17.44167312       4.59961426      129      -0.07407324       0.16010698       0.07335405       0.23308963       0.09536886       0.81525705
C        4.52206145      18.72301703       5.34906094      130       0.11363072      -0.48231756       0.07461387      -0.19716176      -0.37958819      -0.43876905
C        4.61668609      16.26430377       5.29381526      131      -0.09309879       0.30650177      -0.08314552      -0.17515805      -0.47626730      -0.82472408
C        3.56795677      16.22663389       2.64980737      132       0.06272096      -0.42419349      -0.35509287       0.36430558       0.03705780       0.05753052
C        3.82119799      15.02315778       3.31963291      133       0.09512206       0.04754525       0.16216083       0.01853235       0.36273721       0.45519684
C        4.33703132      15.05772937       4.64401185      134       0.06752410      -0.00461071       0.09640147      -0.19014119      -0.88211150      -0.49733831
C        4.51992125      13.71642789       5.33135376      135      -0.38403344       0.43385207      -0.47666024      -0.41647049       0.90721801      -0.20829476
C        3.79904392       4.21917235       6.93096452      136       0.06404402       0.20158681      -0.00323449      -0.17430633      -0.08428323       0.42070200
C        4.30657362       4.20450384       5.62968886      137       0.14577835       0.27007535      -0.21423521       0.13080504       0.73188194      -0.46531858
C        4.44769608       2.91470648       4.90524429      138       0.00246290       0.01230939      -0.57838743       0.72852017      -0.08904153      -0.63191725
C        4.63120435       5.43714618       4.99928520      139       0.43657022       0.06719803       0.24792933      -0.00778399      -0.69278790      -0.03084485
C        3.56550317       5.42285862       7.62559867      140       0.25151401      -0.06981575       0.15101415       0.27153189      -0.34728838      -0.38686770
C        3.77860694       6.62964582       6.95983962      141       0.10573010       0.20050665       0.12589497       0.50520956      -0.01851910       0.18330736
C        4.34578181       6.62061952       5.66522789      142       0.61174074       0.05351889      -0.04587638      -0.36236396       0.29071671      -0.21027977
C        4.48490388       7.91680976       4.91874336      143       0.34496047      -0.15943775       0.24424972       0.40384303      -0.45289582       0.40426240
C       14.60236698      17.46483574       1.78516938      144       0.23128263       0.12503839      -0.52088236       0.32234834      -0.46776334      -0.19439951
C       15.13410419      17.42946677       0.47701567      145      -0.00579150       0.10374450       0.39024678      -0.37422513       0.36729169       0.68878103
C       15.31061546      18.73937599      10.07422405      146       0.04104840      -0.27789885       0.06403315      -0.40805488      -0.57740818       0.05507636
C       15.40721971      16.22160301      10.12793922      147       0.07567420      -0.23237804      -0.04725595      -0.21954150       0.10172136       0.58408159
C       14.38706460      16.26768535       2.46624300      148       0.07070908       0.30238526      -0.01432491       0.04793064      -0.53240671      -0.30173646
C       14.59211515      15.03333131       1.81451006      149       0.04046589       0.22107862      -0.04408380       0.28990926       0.18820275       0.09159042
C       15.07872315      15.02030575       0.49768790      150      -0.41895357       0.54447831      -0.24333570       0.31228669       0.47533279      -0.27948690
C       15.28084784      13.73779464      10.07297097      151      -0.02997006       0.03114676       0.09644293      -0.07563820      -0.21405839       0.00996769
C       14.64112459       4.18784627       8.46503963      152       0.11584832      -0.18674397      -0.42313665      -0.20352641       0.12830632      -0.38776246
C       15.15686463       4.17333340       9.76668035      153       0.09050870      -0.19028135       0.20617007      -0.22980514       0.50817794      -0.20231556
C       15.32070382       2.90817851       0.22032699      154      -0.33735330      -0.26369384       0.02003539      -0.23917922      -0.64156302      -0.52714649
C       15.43179561       5.39931155       0.10319138      155       0.15147083       0.04205766      -0.37604513       0.40723459       0.12569573       0.33748305
C       14.40967080       5.40081744       7.80961127      156       0.23375684      -0.43581240      -0.14618264       0.01465423      -0.36733852      -0.45273193
C       14.68185281       6.59465033       8.44281223      157       0.86298223       0.09865981       0.24634466       0.22983771       0.53862056       0.74537830
C       15.14516062       6.61756666       9.78102407      158      -0.15764980      -0.01143820      -0.25773376      -0.07157527       0.03795778      -0.62962144
C       15.33532333       7.94005225       0.20844518      159       0.01144403      -0.03060895      -0.08961192      -0.26287967      -0.89774464      -0.41200422
C        7.01597714      17.39954288       1.76643960      160       0.05199576       0.08196919      -0.34184777       0.29599655       0.56086697       0.34332178
C        6.48686022      17.43401077       0.48293832      161      -0.49044058       0.22348379      -0.12197151      -0.20253531      -0.02479503      -0.32027478
C        6.30513741      18.74487499      10.07337929      162      -0.36858102       0.16000750      -0.17211327       0.48729358       0.05821141      -0.24156989
C        6.20577528      16.21455389      10.14238000      163      -0.56101366      -0.22416278      -0.33596158      -0.53340878       0.17819051      -0.52416748
C        7.24114070      16.20527812       2.43803814      164      -0.07846474      -0.22528151      -0.15985051       0.27996074       0.45619645       0.17585874
C        7.03934411      15.01110329       1.77934072      165       0.03004663      -0.46014584      -0.31550931      -0.01082671      -0.19755180       0.31578197
C        6.53043985      15.02572947       0.47734955      166       0.11897870      -0.08612827       0.16768262      -0.20434771      -0.74071167       0.18478885
C        6.31077036      13.72199214      10.06683381      167       0.01104143      -0.12772271       0.22275347       0.63317660      -0.15423772       0.01795635
C        6.98015831       4.19568058       8.44525262      168      -0.33670895      -0.14352307      -0.55707280       0.08926566       0.41016535       0.06576398
C        6.52451699       4.20237203       9.75792397      169      -0.04764044       0.16417296       0.48909480      -0.84763848      -0.19732672       0.66454977
C        6.32204361       2.90272520       0.20061805      170       0.17747028       0.05461680       0.06615462       0.10290181       0.17237030       0.04015982
C        6.16624897       5.40741817       0.09230145      171      -0.08382617      -0.34396001      -0.35377322       0.63552101      -0.53586649       0.38497023
C        7.21167664       5.42508676       7.82772820      172      -0.36411477       0.44519297       0.32398252       0.01100890      -0.19831367       0.03512902
C        6.96482975       6.63149094       8.47593580      173      -0.44067421       0.20389565      -0.48560561       0.01274961      -0.46002168      -0.66126523
C        6.47938352       6.60422760       9.76169394      174      -0.45344208       0.36569469       0.56779373      -0.38313076       0.85190580       0.72153900
C        6.31440494       7.91381286       0.19374446      175       0.23750132      -0.07900345      -0.29519355      -0.01056710      -0.07085727      -0.14171622
C       17.82761466      17.41740022       3.30082078      176       0.03827303      -0.04150976      -0.12717879      -0.18289882       0.03460143       0.33727790
C       17.32684372      17.43690878       4.62748982      177       0.37573227       0.06471526      -0.09086582      -0.11078138       0.25004120       0.02184727