304
Lattice="21.63717 0.0 0.0 -0.003217390455063572 21.636489760783718 0.0 0.00016878672533660936 -0.0001687616282665579 10.28804999723128" Properties=species:S:1:pos:R:3:spacegroup_kinds:I:1:momenta:R:3:forces:R:3 spacegroup="P 1" unit_cell=conventional energy=-2140.0914913008874 free_energy=-2140.0914913008874 stress="-0.0009272489254588008 -9.400095762145802e-07 6.869184262127937e-06 -9.400095762145802e-07 -0.0009021047037729813 9.420468162295402e-06 6.869184262127937e-06 9.420468162295402e-06 -0.0018988135186300901" pbc="T T T"
Al      14.71092529      21.62740220       0.01460903        0       0.05852773       0.43599530      -0.49999795       0.22961975       0.00379538       0.00846414
Al       6.92240957      21.62761853       0.01625512        1       1.03274850       0.36186046      -0.27040633      -0.23354593      -0.00553534       0.00341653
Al      16.23323439      20.12094323       7.72930908        2      -2.24012528      -1.50140495      -1.35454584      -0.00305144       0.23587476       0.00610626
Al       5.39842144      20.12159230       7.73085229        3       0.42415709      -0.35471472      -0.63896682      -0.00944119       0.23316025       0.01696773
Al      16.22120349       1.51494460       2.58559273        4      -0.03974322      -0.88612661      -1.88891668      -0.00447281      -0.23079460       0.01034179
Al       5.41624990       1.51516093       2.58744457        5       0.78498175      -0.33020100       2.02790996       0.01525163      -0.23637171       0.00305969
Al       3.89304290       0.00921905       5.16007436        6      -0.15318210      -1.15105010      -0.29242755       0.22743817       0.00631847       0.00362874
Al      17.74364468       0.00792090       5.15729658        7       0.41013048      -0.16288901      -1.24048327      -0.22699415       0.00080844       0.00801340
Al       5.40087772      12.33310520       7.72375354        8      -1.42757688       0.51302486      -0.40617675      -0.00413031      -0.22444907       0.01305453
Al       3.89381627      10.81318399       5.15132951        9      -0.40316948       0.22213826       0.37639172       0.22987666      -0.00475906       0.00732162
Al       5.41444209       9.30624468       2.57859685       10       1.82068353       0.28105274       0.00266309      -0.00068885       0.22149864       0.01853057
Al      16.23569056      12.33418690       7.73116093       11       1.45313938      -0.43843244       0.29416862      -0.00479726      -0.23509654       0.02282161
Al      14.70993489      10.82689923       0.01512343       12       0.46214460      -0.16818758      -0.51005351       0.23326508       0.00396750       0.01641253
Al      16.21615080       9.30256632       2.58795898       13       0.47275665      -0.33089160       0.52764697      -0.00185860       0.23159662       0.00590369
Al       6.92293393      10.82495208       0.00668723       14      -0.69284371       0.45690738       1.70923724      -0.22923842       0.00183152       0.01674774
Al      17.74117314      10.80864019       5.15955995       15       0.24142755      -0.96852075      -0.85802974      -0.21959132       0.00062272       0.01771248
H       15.58526682      10.76102569       6.02632817       16       0.18079438      -0.11397145       0.01253576       0.06714768      -0.00230601       0.00842872
H       16.17083879      11.46079194       3.45555023       17      -0.26252782       0.12120410      -0.24909826      -0.00732651      -0.06427121       0.00160959
H        5.34745561       0.64397712       8.60667399       18       0.05330968      -0.29794362       0.16320764      -0.00636815      -0.07172509       0.00120762
H        6.05690245      10.78396078       6.00173973       19      -0.51615307      -0.07419785       0.31851909      -0.07806074      -0.00872288       0.01039192
H        5.43447245      11.47420716       3.41954206       20      -0.33442773      -0.18956137       0.08794278       0.00944713      -0.08454565       0.01253403
H       16.27756922      10.17463469       8.59494561       21      -0.14103717      -0.06993957      -0.37167582       0.00398289       0.08496941       0.01233612
H       16.86976577      10.86431622       0.87695338       22       0.56918160      -0.19191126       0.21300026      -0.07147359       0.01088505       0.00666478
H        5.36334820      10.17095676       8.57807321       23      -0.34142948       0.11722872      -0.00549658      -0.00280654       0.07163175       0.00538527
H       16.18521667      20.99015135       3.44227865       24      -0.11190068       0.33629441       0.09731115      -0.00977238       0.07361119       0.00489437
H       16.87444302      21.60618449       0.86501924       25       0.37622594      -0.66988722       0.11788393      -0.08032473      -0.01968663       0.00712118
H       16.26535458       0.64592476       8.58486332       26      -0.07792603       0.06995754      -0.20983135       0.01364084      -0.07033093       0.00260651
H       15.58210090       0.03841432       6.01285082       27      -0.00110263       0.42732889      -0.10804911       0.07178547       0.01389243       0.00306619
H        4.76585778      21.55663645       0.89372290       28      -0.49724211      -0.01809021       0.16780472       0.05751480       0.01326244      -0.00057202
H        6.05049030       0.07065236       6.03270676       29       0.07528133      -0.54621788      -0.31028615      -0.07209744      -0.00741445       0.00553072
H        5.46919184      20.99253102       3.46326627       30       0.36564300       0.32668283      -0.22644723       0.00596435       0.07439076       0.00099670
H        4.75965897      10.85566204       0.85174766       31      -0.08694359      -0.10131580       0.09545478       0.07558511       0.00416694       0.01188600
H       12.96689340      19.82391220       5.41408631       32       0.05918345      -0.08068033       0.58882298       0.04718479      -0.02602283      -0.04489240
H        8.65200908      19.82347941       5.41809865       33      -0.30974101       0.05961579       0.03674411      -0.02908619      -0.02262122      -0.04076727
H       10.81016248      21.24061307       8.85739376       34      -0.23166938      -0.06135332      -0.17156362       0.01142893       0.04797244       0.01758900
H       10.80905610      19.43793695       4.21151615       35      -0.41920354       0.11384353       0.30999728       0.00695334      -0.03163721      -0.10213207
H       12.98275688       1.84118572       4.84988965       36       0.55461835       0.19582114      -0.14452697       0.03873340       0.03008777       0.03701270
H        8.66419350       1.84551300       4.85112422       37       0.15617050       0.12585156      -0.04753917      -0.04594329       0.03179208       0.03759849
H       10.82157381       0.42729752       1.41131470       38      -0.07757840      -0.08962540       0.18804546      -0.00223817      -0.04729201      -0.02729165
H       10.82397988       2.22045354       6.05976433       39      -0.27595140      -0.02513446      -0.27342911      -0.00372435       0.03354461       0.10519271
H        2.15336339      19.80220050       9.99916155       40       0.40862128      -0.26010907       0.08410484       0.04890128      -0.03454016       0.03869166
H       19.47197126      19.79765688       9.99669242       41       0.08049942       0.08766523       0.45109608      -0.03988486      -0.02699304       0.03821492
H       21.63066085      21.21555244       6.55914628       42       0.56804659       0.18386222       0.26956918       0.00561664       0.04733833      -0.03580517
H       21.63126725      19.42565814       0.92016319       43      -0.11759725       0.23231472      -0.00345473       0.00163669      -0.03083395       0.10394500
H        2.16453251       1.82157155       0.27592550       44       0.06693337      -0.08551314      -0.04505481       0.03192527       0.02173710      -0.04400950
H       19.48681759       1.82395169       0.26800370       45      -0.18663830       0.43525042       0.48372278      -0.04300327       0.02286500      -0.04056970
H        0.00195097       0.38420330       3.70400664       46       0.21719672       0.11174567      -0.17028718      -0.00558847      -0.04710288       0.02648191
H        0.00912836       2.21325941       9.35729011       47       0.21612754      -0.21239748       0.19628241      -0.00671578       0.02831917      -0.09710264
H        3.58994730      18.39334959       2.84834952       48       0.17720043      -0.11056367       0.23471073      -0.02657371       0.03637845      -0.05023945
H        3.58691049      14.07838457       2.83981044       49      -0.07749516       0.31137032      -0.10195349      -0.02361242      -0.04358033      -0.04249724
H        5.01708020      16.23050978       6.27982572       50      -0.18335860      -0.17481041       0.12028206       0.04859492      -0.00470226       0.02350539
H        3.20034619      16.23794230       1.63981229       51      -0.09171395      -0.23252207       0.15025015      -0.02854394      -0.00536775      -0.09729934
H        3.56955439       3.25530447       7.42395976       52      -0.44816072       0.18439230       0.18225390      -0.03133813      -0.04751270       0.03843528
H        3.56869578       7.57394787       7.42118199       53      -0.11243868      -0.55910567      -0.30473497      -0.02852055       0.03993405       0.03683629
H        4.98619544       5.41251893       3.98373872       54      -0.25863799       0.05821768       0.14123159       0.04547896      -0.00039135      -0.03131962
H        3.19384810       5.41547178       8.63280563       55      -0.24489050      -0.01895374      -0.11106912      -0.03092252      -0.00501540       0.09693822
H       14.38969948      18.38773342       2.28014052       56       0.02585181       0.36490310       0.21874210      -0.03231893       0.04648630       0.03937718
H       14.38817788      14.06973913       2.28168373       57       0.39918602      -0.30124261      -0.14895521      -0.03111343      -0.04700871       0.03655773
H       15.79892918      16.22743396       9.12735220       58      -0.18549516       0.07421924       0.23056475       0.04916512      -0.00068642      -0.03157038
H       14.01376992      16.22925734       3.49083824       59       0.13592574      -0.52947217      -0.14531826      -0.03332928      -0.00149094       0.10588880
H       14.40632409       3.25356433       7.98579017       60       0.00720135       0.05773421       0.12888020      -0.02224599      -0.03680905      -0.03888394
H       14.40308607       7.56852939       7.99144860       61       0.29891253       0.11418566      -0.09831905      -0.02450177       0.03797912      -0.04678558
H       15.84108463       5.40910385       1.13312583       62      -0.09284758       0.31894313       0.09098903       0.05056392      -0.00185581       0.02905818
H       14.01391791       5.41204024       6.78568914       63      -0.08451589       0.04851693       0.01785854      -0.02898318      -0.00200208      -0.09800492
H        7.24186089      18.38405524       2.27849443       64      -0.28220061       0.03900396       0.17751352       0.03208097       0.04170157       0.03994828
H        7.24769595      14.06562827       2.27715699       65      -0.48342058       0.04270143       0.03814158       0.03040853      -0.04837577       0.03948866
H        5.82938733      16.22332304       9.12652915       66      -0.17124682       0.53108042      -0.00779507      -0.04400194       0.00605121      -0.02448346
H        7.61912124      16.22536281       3.48878063       67      -0.08908811       0.25978345       0.08588411       0.03388479      -0.00253917       0.10576358
H        7.23533479       3.24382778       7.99402061       68      -0.11418242       0.16490145       0.20520169       0.01944712      -0.02727650      -0.04566438
H        7.22841808       7.55944222       7.98249799       69       0.08683917       0.34917298      -0.20953189       0.02650344       0.04111626      -0.04075328
H        5.79408136       5.40737294       1.13271430       70       0.07439907       0.09755086      -0.06815965      -0.04474701       0.00301653       0.01934554
H        7.62251615       5.39927472       6.78517473       71       0.37371251       0.12120237      -0.14665548       0.02943853       0.00734725      -0.09876379
H       18.04704073      18.37971871       2.84166229       72      -0.11743803      -0.41198912       0.05010793       0.02525588       0.03763927      -0.04134017
H       18.05179373      14.06367159       2.85030425       73       0.03036835      -0.40477113      -0.06368646       0.01923528      -0.02373052      -0.04511678
H       16.61265668      16.22553342       6.27807675       74      -0.16124934      -0.18567359       0.00374980      -0.04685448       0.00477149       0.02525807
H       18.44048957      16.22020033       1.64300158       75       0.20604533       0.08790634       0.08287634       0.03074716       0.00669278      -0.10270357
H       18.07121946       3.24859716       7.42354824       76       0.19541875       0.01000061       0.38748785       0.02713121      -0.04817336       0.03875394
H       18.06148974       7.56680776       7.42519432       77      -0.19981458      -0.14690628      -0.22357304       0.03208044       0.04735862       0.04079901
H       16.64560208       5.40472974       3.98713378       78       0.35106243       0.16300277      -0.32617540      -0.04353575       0.00797517      -0.03045595
H       18.44069738       5.40854806       8.63548053       79      -0.20360041      -0.26099884      -0.32409650       0.03187271      -0.00122233       0.09930033
H        2.14896774       9.00185718       0.26728354       80       0.21110949       0.30045217      -0.09920241       0.04013214      -0.02346513      -0.04349131
H       19.47082021       9.00488618       0.27366213       81       0.10672587       0.31166172       0.30803201      -0.03009873      -0.02419903      -0.04264982
H       21.63351654      10.42742904       3.70863626       82      -0.22889027      -0.28904652       0.31880477       0.00412941       0.04647834       0.01867071
H       21.62673805       8.61722771       9.35368930       83       0.14296487      -0.17633671       0.03794565       0.00503551      -0.03057241      -0.10016445
H        2.16243202      12.65393709       9.99422329       84       0.17296698       0.09938043      -0.15782096       0.04556345       0.03159846       0.03886071
H       19.48147006      12.66670266       9.99185704       85      -0.17975882       0.07631682      -0.32683664      -0.04922884       0.03032919       0.04142411
H        0.00168160      11.24069799       6.55554546       86       0.31895279       0.10468808      -0.22774248      -0.00441150      -0.04607387      -0.03286677
H        0.00370201      13.03726826       0.91512205       87       0.08542513      -0.05904196      -0.21085325      -0.00167506       0.03216809       0.09882891
H       12.97109370       8.97625092       4.85163862       88      -0.26507616      -0.15892161      -0.05284236       0.04010978      -0.02905888       0.03653216
H        8.65253048       8.97906371       4.84896372       89      -0.01710518      -0.11702724       0.02473813      -0.04480215      -0.03062538       0.03907847
H       10.81381612      10.39998834       1.41378383       90       0.01781725      -0.25080897      -0.17646451       0.00388391       0.04334346      -0.02845027
H       10.81091420       8.60148710       6.06007297       91       0.33292293      -0.44995207      -0.23801772       0.00074931      -0.03396425       0.10667102
H       12.98007925      12.63497208       5.41593816       92      -0.05872299       0.05710774      -0.20184550       0.03290157       0.02195475      -0.04427364
H        8.66497747      12.64103037       5.41172006       93       0.16488687      -0.01223921      -0.10308429      -0.03741201       0.02173968      -0.04173468
H       10.81901187      11.20084927       8.84617979       94       0.00564315       0.27950639       0.14370323      -0.00717353      -0.04777313       0.02806023
H       10.82385721      13.02682870       4.20987006       95      -0.00090476      -0.01293859       0.26424861      -0.00295919       0.02880328      -0.09537349
C       12.01613135      20.04351471       5.89340656       96      -0.76482977      -0.19454087      -0.01646756       0.03299306       0.04790359       0.01584586
C       12.02343300      20.55757625       7.20132636       97       0.27565776      -1.58577319       0.82898378      -0.15866140      -0.00371915      -0.03893127
C       13.32078303      20.73520011       7.91603719       98      -1.08924731       0.41652811      -1.67551452       0.01517034      -0.04422330       0.01554838
C       10.81323421      20.84295099       7.84525541       99       1.18013975       0.57598995       1.26519047      -0.00399414      -0.00506214      -0.05613154
C       10.81009915      19.81158238       5.23270799      100       0.82610001       0.89485367       1.05347105       0.00452933       0.06164360       0.09544170
C        9.60488524      20.04286560       5.89412672      101      -1.37416128      -0.36751178       0.79865647      -0.02190501       0.05281848       0.01810706
C        9.60309917      20.55757625       7.20132636      102      -1.01337451      -1.15755809      -0.15033748       0.15704759       0.00014560      -0.02830398
C        8.30809984      20.73541645       7.91727176      103       0.85283478      -0.02148997      -0.08774404      -0.01811640      -0.04505042       0.01688845
C       12.02901493       1.62396317       4.37417022      104      -0.70136653      -0.59735764       0.39188939       0.01033154      -0.06271388      -0.02675053
C       12.03101673       1.11336348       3.06532450      105      -0.01220368       0.04125490       0.74161345      -0.15816311      -0.00700766       0.02306341
C       13.32406840       0.93747058       2.34814453      106      -1.34202135      -0.95422953      -0.72528696       0.03238194       0.02999867       0.01444447
C       10.82109827       0.82669053       2.42263001      107       0.38892796      -0.26610194       0.56141874      -0.00183983       0.00816237       0.05619690
C       10.82315230       1.85265000       5.03641200      108       0.81707643       0.64445248       0.44707604       0.00159692      -0.04621687      -0.08963255
C        9.61668649       1.62634318       4.37406734      109       0.78217468      -0.17481402      -0.91943389      -0.01949046      -0.06279886      -0.02016154
C        9.61154812       1.11509440       3.06542738      110      -0.04093821       0.95491173      -0.65827534       0.15550625      -0.00804084       0.02140978
C        8.31701075       0.93855239       2.34917334      111      -0.45978630      -0.19244740       0.49136440      -0.03980151       0.03271267       0.01189342
C        1.20063869      20.01922232       9.52189891      112      -1.29403373      -0.06833078       0.28811137       0.01084264       0.06552733      -0.02134926
C        1.20486900      20.52791768       8.21233303      113       0.46567227       2.53933872      -1.22529521      -0.14638963       0.00578788       0.02465321
C        2.49916706      20.70058864       7.49453578      114      -0.22969424       0.40824986       0.88308336       0.03201071      -0.03381755       0.01333469
C       21.63225149      20.81569353       7.57005007      115       0.51976544       0.08215419      -1.06810790      -0.00091118      -0.00487703       0.05508282
C       21.63158099      19.79289377      10.18465509      116       0.90799608      -0.11109010       0.61930501      -0.00523874       0.03947243      -0.09195418
C       20.42526439      20.01814050       9.52159027      117       0.19096339      -0.94422430      -0.44885063      -0.00739432       0.05860696      -0.02139764
C       20.42257062      20.52813404       8.21264167      118      -1.48573284       1.05829574       0.19648388       0.15035851       0.00708048       0.01706079
C       19.12971227      20.70058866       7.49330122      119       0.60668733      -1.29052441       0.15774008      -0.03007386      -0.03472052       0.01401630
C        1.21145609       1.59870793       0.74969020      120      -0.84077298      -0.08956006      -0.44287054       0.01970652      -0.05339336       0.02279896
C        1.21285326       1.07724712       2.05452358      121      -1.30757449      -2.07887214      -0.85140649      -0.16346542       0.00782303      -0.04025866
C        2.50722690       0.90003250       2.77211507      122       0.30092819       0.19608349       0.74497639       0.01695530       0.04134867       0.01939856
C        0.00165791       0.78860585       2.69474894      123       1.33695055       0.41246151      -0.15540748       0.00092860       0.00028846      -0.04597969
C        0.00665267       1.83369106       0.08837435      124      -0.24133187      -0.37073929       0.07926110      -0.00003071      -0.05841789       0.09540598
C       20.43694691       1.59978980       0.74691243      125       1.14093419       0.25954285      -0.73259749      -0.03260403      -0.04894583       0.01898779
C       20.42904005       1.07876171       2.05226021      126       0.37666858       0.31342493       0.15310646       0.15729823       0.00428225      -0.03823523
C       19.13236265       0.90089802       2.76841137      127      -0.39421320       0.35283247       1.08360140      -0.01983607       0.03839980       0.02166856
C        3.81057960      17.44003808       3.32221711      128       0.80845659      -0.12449797      -0.46771220       0.05509764       0.02305116       0.01870766
C        4.32881098      17.44174757       4.62807929      129       0.06954003      -1.61189684      -0.82791138      -0.00472332      -0.17181260      -0.03607417
C        4.50605508      18.73603062       5.34536214      130      -1.28661522       1.35685864      -0.37062646      -0.04794457       0.01564321       0.00772103
C        4.61591045      16.23074272       5.26923057      131       1.05079552       0.66521725       1.27622569      -0.00501524      -0.01045754      -0.05239225
C        3.57728278      16.23554555       2.65997533      132      -0.04641471       0.80250330       1.14767448       0.05611278      -0.00294640       0.09194740
C        3.80963989      15.02865135       3.31892493      133      -0.66745860       0.18571956       0.90801985       0.04726132      -0.02493999       0.01629806
C        4.32743993      15.02105714       4.62530152      134       1.11284341       0.34514904      -0.10585612      -0.00200201       0.15858013      -0.03533445
C        4.50528572      13.72372150       5.33949795      135      -0.59005664       0.73470419       0.01095303      -0.04108489      -0.01879346       0.01582317
C        3.78815672       4.20775058       6.94669712      136      -0.30296684       0.25261961      -0.52596691       0.05990783      -0.00906667      -0.01602849
C        4.29834048       4.20257929       5.63764564      137      -0.12141250       0.52464594       0.87255789       0.00313370       0.16124415       0.02035798
C        4.47183498       2.90786351       4.92077431      138       0.79989908       1.09695824      -0.38282152      -0.04218588      -0.04406452       0.02902347
C        4.58592438       5.41250235       4.99464251      139       0.54222809      -0.81869162      -1.62127775      -0.00416050      -0.00695972       0.06215257
C        3.56123061       5.41440675       7.60904178      140      -0.45548002      -1.33301326       0.21504351       0.04716874       0.00170700      -0.09369629
C        3.78801431       6.62043556       6.94597696      141      -0.02032914      -0.28182957      -1.69454787       0.06378994       0.00442429      -0.03123916
C        4.29862972       6.62262068       5.63692547      142      -0.06235572       0.04964604       0.46310606       0.00542207      -0.15096126       0.01823830
C        4.47238846       7.91584547       4.91779078      143       1.12798619       0.66966034       0.05476390      -0.04467723       0.03619993       0.02503501
C       14.60663787      17.43443749       1.80390669      144      -0.81071633      -1.00603289       0.48845724       0.06448214       0.01393564      -0.02383593
C       15.11530580      17.43748808       0.49434080      145       1.11156714       0.38741180       1.34744071       0.00409453      -0.15191975       0.02161938
C       15.28880058      18.73076045      10.06469643      146       0.94262497       0.23714641      -0.73684013      -0.03525316       0.04063172       0.01805973
C       15.40147093      16.22763373      10.13928479      147      -0.91638296       0.66951877       1.18477179      -0.00764852      -0.00548171       0.06174715
C       14.38007051      16.22862504       2.46697151      148      -0.54233769      -1.04910799       0.45011130       0.04443291       0.00420548      -0.08908747
C       14.60591469      15.02240161       1.80442109      149      -0.63047286      -0.88355943      -0.18308365       0.06230020      -0.01575809      -0.01953224
C       15.11458369      15.01831215       0.49495809      150       1.01967288       0.25217226       0.15477165       0.00689936       0.16221962       0.02009833
C       15.28867955      13.72450943      10.06603388      151      -0.49715370      -0.69996243       1.89153591      -0.03964678      -0.04526365       0.01962513
C       14.62862060       4.20469658       8.46387585      152      -0.51739876      -0.51662163      -0.34492116       0.04835701      -0.02811559       0.01319463
C       15.14923316       4.19904968       9.76912076      153      -0.25530860       0.80294487      -0.26009217      -0.00284216       0.15373557      -0.03180771
C       15.32734279       2.90296459       0.19742768      154       0.14208717       0.75271970      -0.57922574      -0.04682321      -0.01957467       0.01254990
C       15.43775119       5.40933678       0.12355948      155       0.80779109      -0.71220018      -0.25890115      -0.00664037       0.00493905      -0.05166042
C       14.39323438       5.41094169       7.80492625      156       0.09940452       0.87869755      -0.37860904       0.06137943       0.00313777       0.10141013
C       14.62674743       6.61629969       8.46624210      157      -2.42653369       0.57722711      -0.10292097       0.05099684       0.02378776       0.01553211
C       15.14800768       6.62017286       9.77107548      158       0.06385699      -0.88743898       1.10837778      -0.00353892      -0.16883753      -0.03463428
C       15.32551557       7.91570650       0.19989681      159      -1.06987174      -1.52016255       0.51660056      -0.04381814       0.02183510       0.01329333
C        7.02497405      17.43054295       1.80236348      160       0.67441944       0.13801180       0.05128152      -0.05855125       0.02112662      -0.01965800
C        6.51647849      17.43445900       0.49290048      161      -0.19026627      -0.15158521       1.39256260      -0.00666120      -0.14906057       0.01876437
C        6.34377841      18.72881317      10.06449067      162       0.59276760      -0.03149754      -0.45622728       0.03497166       0.04301179       0.01925131
C        6.22904222      16.22482101      10.13784447      163      -0.99008064       2.23187039      -0.07740453       0.00800184      -0.00843129       0.05861558
C        7.25257089      16.22473051       2.46501678      164       1.14477940       0.12191397      -0.17077941      -0.04614772      -0.00693298      -0.09678129
C        7.02771280      15.01850709       1.80154044      165       0.56463402       0.73767732      -0.46211281      -0.06537802      -0.00403170      -0.02358981
C        6.51705460      15.01528308       0.49259183      166       0.47533647      -0.06718281       0.10653774      -0.00385622       0.15900599       0.02312510
C        6.34409017      13.72191312      10.06212442      167      -0.50949406       0.45035462      -0.27386855       0.03993968      -0.03732266       0.01894215
C        7.00995784       4.19712377       8.46644786      168      -0.65584682       0.17527174      -0.43351517      -0.04996976      -0.02266327       0.02181820
C        6.48787455       4.19558782       9.77086972      169      -0.14843334       0.34187934       1.72130629       0.00251427       0.16475072      -0.02877424
C        6.30940341       2.90101726       0.20010257      170      -0.31548383       1.37589132       0.23496768       0.05177914      -0.01669005       0.00966097
C        6.19824720       5.40695677       0.12314796      171       1.14668865      -0.03612998      -0.00711825       0.00207845      -0.00043718      -0.05206967
C        7.24323290       5.40185438       7.80441185      172      -0.19443217       0.15981071       1.20659533      -0.05893725       0.00461420       0.09469991
C        7.00765178       6.60894335       8.46222976      173       0.87491581      -0.39464524      -0.80714949      -0.05236278       0.02250497       0.01366472
C        6.48751451       6.61649471       9.76778331      174       0.32148969      -0.69116549      -0.45929758       0.00585352      -0.15984902      -0.03834323
C        6.30909066       7.91375931       0.19444414      175       0.86688488       0.59947514      -0.78676903       0.04731551       0.02436406       0.00787106
C       17.82562536      17.42878713       3.32046814      176      -0.63652001      -0.00270364       1.08967110      -0.04927270       0.03298965       0.01252097
C       17.30548815      17.43590576       4.62591880      177       1.25232988       0.14359526       0.60597243       0.00082594      -0.15922031      -0.03550908