304
Lattice="21.63717 0.0 0.0 -0.003217390455063572 21.636489760783718 0.0 0.00016878672533660936 -0.0001687616282665579 10.28804999723128" Properties=species:S:1:pos:R:3:spacegroup_kinds:I:1:momenta:R:3:forces:R:3 spacegroup="P 1" unit_cell=conventional energy=-2140.0914913008874 free_energy=-2140.0914913008874 stress="-0.0009272489254587912 -9.400095762106011e-07 6.8691842621289685e-06 -9.400095762106011e-07 -0.0009021047037729274 9.420468162299402e-06 6.8691842621289685e-06 9.420468162299402e-06 -0.0018988135186300689" pbc="T T T"
Al      14.71092529      21.62740220       0.01460903        0      -0.52303016      -0.47756623      -0.40127242       0.22961975       0.00379538       0.00846414
Al       6.92240957      21.62761853       0.01625512        1      -0.21388047      -0.42599067       1.72319881      -0.23354593      -0.00553534       0.00341653
Al      16.23323439      20.12094323       7.72930908        2      -0.54189184      -0.74124219       0.31014843      -0.00305144       0.23587476       0.00610626
Al       5.39842144      20.12159230       7.73085229        3      -0.38404908       1.00216814       1.36042847      -0.00944119       0.23316025       0.01696773
Al      16.22120349       1.51494460       2.58559273        4       0.59220263      -0.90301390      -1.59887015      -0.00447281      -0.23079460       0.01034179
Al       5.41624990       1.51516093       2.58744457        5       0.81007974       0.86398606       0.63668788       0.01525163      -0.23637171       0.00305969
Al       3.89304290       0.00921905       5.16007436        6       0.64970984       0.67453613       0.23577277       0.22743817       0.00631847       0.00362874
Al      17.74364468       0.00792090       5.15729658        7      -0.28281009      -1.02633325       1.90914997      -0.22699415       0.00080844       0.00801340
Al       5.40087772      12.33310520       7.72375354        8      -0.40585053       0.46344984       0.29457589      -0.00413031      -0.22444907       0.01305453
Al       3.89381627      10.81318399       5.15132951        9       0.22703181      -0.73179003       0.15117173       0.22987666      -0.00475906       0.00732162
Al       5.41444209       9.30624468       2.57859685       10       0.80842220       0.16937190      -0.50633134      -0.00068885       0.22149864       0.01853057
Al      16.23569056      12.33418690       7.73116093       11       0.07737288      -0.00502606      -0.38633758      -0.00479726      -0.23509654       0.02282161
Al      14.70993489      10.82689923       0.01512343       12       0.29827847       0.43590525      -0.40085132       0.23326508       0.00396750       0.01641253
Al      16.21615080       9.30256632       2.58795898       13       0.91204065       0.54553114       0.43800216      -0.00185860       0.23159662       0.00590369
Al       6.92293393      10.82495208       0.00668723       14       0.06333568       1.26531397       0.23679204      -0.22923842       0.00183152       0.01674774
Al      17.74117314      10.80864019       5.15955995       15      -0.95591082      -1.40206944      -0.55180937      -0.21959132       0.00062272       0.01771248
H       15.58526682      10.76102569       6.02632817       16       0.09781708      -0.16096779       0.15185592       0.06714768      -0.00230601       0.00842872
H       16.17083879      11.46079194       3.45555023       17       0.04350897       0.13029165      -0.14008016      -0.00732651      -0.06427121       0.00160959
H        5.34745561       0.64397712       8.60667399       18      -0.07810117       0.12308789       0.07836771      -0.00636815      -0.07172509       0.00120762
H        6.05690245      10.78396078       6.00173973       19       0.06300354      -0.00081303      -0.00453868      -0.07806074      -0.00872288       0.01039192
H        5.43447245      11.47420716       3.41954206       20       0.08693102       0.15073515      -0.02478395       0.00944713      -0.08454565       0.01253403
H       16.27756922      10.17463469       8.59494561       21      -0.16959876       0.00745914       0.01847847       0.00398289       0.08496941       0.01233612
H       16.86976577      10.86431622       0.87695338       22       0.25108957       0.12552624      -0.08926923      -0.07147359       0.01088505       0.00666478
H        5.36334820      10.17095676       8.57807321       23      -0.19564922       0.19302709       0.12324730      -0.00280654       0.07163175       0.00538527
H       16.18521667      20.99015135       3.44227865       24      -0.04427975       0.12142052       0.15779700      -0.00977238       0.07361119       0.00489437
H       16.87444302      21.60618449       0.86501924       25      -0.18138732      -0.09513182      -0.06182026      -0.08032473      -0.01968663       0.00712118
H       16.26535458       0.64592476       8.58486332       26      -0.31858240       0.18840553      -0.14398044       0.01364084      -0.07033093       0.00260651
H       15.58210090       0.03841432       6.01285082       27       0.17441074      -0.08569705      -0.04118377       0.07178547       0.01389243       0.00306619
H        4.76585778      21.55663645       0.89372290       28      -0.06862043       0.00477044       0.12660622       0.05751480       0.01326244      -0.00057202
H        6.05049030       0.07065236       6.03270676       29       0.20867427       0.21697985      -0.06664070      -0.07209744      -0.00741445       0.00553072
H        5.46919184      20.99253102       3.46326627       30      -0.04626447      -0.13913325      -0.03069404       0.00596435       0.07439076       0.00099670
H        4.75965897      10.85566204       0.85174766       31      -0.14713622       0.27137727      -0.08990912       0.07558511       0.00416694       0.01188600
H       12.96689340      19.82391220       5.41408631       32       0.09115637      -0.42881315       0.12623608       0.04718479      -0.02602283      -0.04489240
H        8.65200908      19.82347941       5.41809865       33      -0.05717480       0.53840926       0.09143404      -0.02908619      -0.02262122      -0.04076727
H       10.81016248      21.24061307       8.85739376       34      -0.08536418      -0.29172712      -0.23030219       0.01142893       0.04797244       0.01758900
H       10.80905610      19.43793695       4.21151615       35       0.04885188      -0.02443839      -0.00764246       0.00695334      -0.03163721      -0.10213207
H       12.98275688       1.84118572       4.84988965       36       0.15756687      -0.10514658       0.23969609       0.03873340       0.03008777       0.03701270
H        8.66419350       1.84551300       4.85112422       37       0.05802119      -0.01701087       0.49725335      -0.04594329       0.03179208       0.03759849
H       10.82157381       0.42729752       1.41131470       38       0.30514378       0.03733739      -0.14029729      -0.00223817      -0.04729201      -0.02729165
H       10.82397988       2.22045354       6.05976433       39       0.11345301       0.07042625      -0.12151793      -0.00372435       0.03354461       0.10519271
H        2.15336339      19.80220050       9.99916155       40       0.20733083      -0.18849563      -0.15903490       0.04890128      -0.03454016       0.03869166
H       19.47197126      19.79765688       9.99669242       41      -0.09906667      -0.22677268      -0.11753809      -0.03988486      -0.02699304       0.03821492
H       21.63066085      21.21555244       6.55914628       42      -0.31031074      -0.31496833      -0.02374500       0.00561664       0.04733833      -0.03580517
H       21.63126725      19.42565814       0.92016319       43       0.17870139       0.18432374       0.31826463       0.00163669      -0.03083395       0.10394500
H        2.16453251       1.82157155       0.27592550       44       0.06706395       0.38884547       0.28946194       0.03192527       0.02173710      -0.04400950
H       19.48681759       1.82395169       0.26800370       45      -0.31430680      -0.15601966       0.16623564      -0.04300327       0.02286500      -0.04056970
H        0.00195097       0.38420330       3.70400664       46      -0.00715315      -0.03746729      -0.04761837      -0.00558847      -0.04710288       0.02648191
H        0.00912836       2.21325941       9.35729011       47      -0.18233588      -0.01129657      -0.52457863      -0.00671578       0.02831917      -0.09710264
H        3.58994730      18.39334959       2.84834952       48      -0.05071713       0.14014707      -0.07966301      -0.02657371       0.03637845      -0.05023945
H        3.58691049      14.07838457       2.83981044       49      -0.11773076       0.24763107      -0.01915556      -0.02361242      -0.04358033      -0.04249724
H        5.01708020      16.23050978       6.27982572       50       0.07436393       0.09529873       0.19086462       0.04859492      -0.00470226       0.02350539
H        3.20034619      16.23794230       1.63981229       51       0.11093644       0.17919703      -0.02812439      -0.02854394      -0.00536775      -0.09729934
H        3.56955439       3.25530447       7.42395976       52      -0.12057240       0.17504917       0.18068848      -0.03133813      -0.04751270       0.03843528
H        3.56869578       7.57394787       7.42118199       53       0.13288726       0.09582997      -0.06141703      -0.02852055       0.03993405       0.03683629
H        4.98619544       5.41251893       3.98373872       54      -0.01440002      -0.05149835      -0.06493943       0.04547896      -0.00039135      -0.03131962
H        3.19384810       5.41547178       8.63280563       55      -0.18280996      -0.14223017      -0.03629451      -0.03092252      -0.00501540       0.09693822
H       14.38969948      18.38773342       2.28014052       56       0.02017012       0.11561802      -0.01251729      -0.03231893       0.04648630       0.03937718
H       14.38817788      14.06973913       2.28168373       57      -0.09209732      -0.03863921      -0.05684507      -0.03111343      -0.04700871       0.03655773
H       15.79892918      16.22743396       9.12735220       58      -0.07424952      -0.08468558      -0.14730072       0.04916512      -0.00068642      -0.03157038
H       14.01376992      16.22925734       3.49083824       59       0.00720275       0.08945667       0.39114233      -0.03332928      -0.00149094       0.10588880
H       14.40632409       3.25356433       7.98579017       60       0.13949319       0.10829861       0.03075971      -0.02224599      -0.03680905      -0.03888394
H       14.40308607       7.56852939       7.99144860       61       0.15379603      -0.29173746      -0.01025009      -0.02450177       0.03797912      -0.04678558
H       15.84108463       5.40910385       1.13312583       62       0.23345002       0.11222036      -0.00299783       0.05056392      -0.00185581       0.02905818
H       14.01391791       5.41204024       6.78568914       63       0.14532414       0.04068523      -0.19941252      -0.02898318      -0.00200208      -0.09800492
H        7.24186089      18.38405524       2.27849443       64      -0.00380342      -0.23612491       0.06335816       0.03208097       0.04170157       0.03994828
H        7.24769595      14.06562827       2.27715699       65       0.01932084       0.12771818      -0.22311646       0.03040853      -0.04837577       0.03948866
H        5.82938733      16.22332304       9.12652915       66      -0.04950535      -0.07362973      -0.00090509      -0.04400194       0.00605121      -0.02448346
H        7.61912124      16.22536281       3.48878063       67      -0.13023887      -0.08404828      -0.27829329       0.03388479      -0.00253917       0.10576358
H        7.23533479       3.24382778       7.99402061       68      -0.18149308      -0.05216570      -0.16816211       0.01944712      -0.02727650      -0.04566438
H        7.22841808       7.55944222       7.98249799       69       0.03206027       0.09347395       0.02092820       0.02650344       0.04111626      -0.04075328
H        5.79408136       5.40737294       1.13271430       70      -0.20306677       0.25439720       0.22425412      -0.04474701       0.00301653       0.01934554
H        7.62251615       5.39927472       6.78517473       71       0.11992213      -0.00001100       0.06828384       0.02943853       0.00734725      -0.09876379
H       18.04704073      18.37971871       2.84166229       72       0.05984055      -0.29013359      -0.01703901       0.02525588       0.03763927      -0.04134017
H       18.05179373      14.06367159       2.85030425       73       0.08217587      -0.02642281       0.05559914       0.01923528      -0.02373052      -0.04511678
H       16.61265668      16.22553342       6.27807675       74       0.26367802      -0.19934739      -0.01661449      -0.04685448       0.00477149       0.02525807
H       18.44048957      16.22020033       1.64300158       75       0.20208120      -0.30057997      -0.01134854       0.03074716       0.00669278      -0.10270357
H       18.07121946       3.24859716       7.42354824       76       0.13295531       0.20637363       0.17400845       0.02713121      -0.04817336       0.03875394
H       18.06148974       7.56680776       7.42519432       77       0.28061591       0.06746394      -0.08165582       0.03208044       0.04735862       0.04079901
H       16.64560208       5.40472974       3.98713378       78      -0.07756805       0.25560559       0.17514506      -0.04353575       0.00797517      -0.03045595
H       18.44069738       5.40854806       8.63548053       79       0.20487909      -0.12845778       0.14438943       0.03187271      -0.00122233       0.09930033
H        2.14896774       9.00185718       0.26728354       80       0.15028738       0.05056987       0.05621715       0.04013214      -0.02346513      -0.04349131
H       19.47082021       9.00488618       0.27366213       81      -0.17488481       0.12212300       0.06003301      -0.03009873      -0.02419903      -0.04264982
H       21.63351654      10.42742904       3.70863626       82      -0.00260780      -0.05306019      -0.08643506       0.00412941       0.04647834       0.01867071
H       21.62673805       8.61722771       9.35368930       83      -0.09475808       0.06465870      -0.05823668       0.00503551      -0.03057241      -0.10016445
H        2.16243202      12.65393709       9.99422329       84       0.03883213      -0.13178895      -0.28283660       0.04556345       0.03159846       0.03886071
H       19.48147006      12.66670266       9.99185704       85       0.25593934      -0.07000136      -0.15344454      -0.04922884       0.03032919       0.04142411
H        0.00168160      11.24069799       6.55554546       86      -0.15419327      -0.16292596       0.03048999      -0.00441150      -0.04607387      -0.03286677
H        0.00370201      13.03726826       0.91512205       87       0.00105534       0.00745057       0.04125038      -0.00167506       0.03216809       0.09882891
H       12.97109370       8.97625092       4.85163862       88      -0.15722081       0.05172216       0.23035567       0.04010978      -0.02905888       0.03653216
H        8.65253048       8.97906371       4.84896372       89      -0.12026817      -0.33306491      -0.34828535      -0.04480215      -0.03062538       0.03907847
H       10.81381612      10.39998834       1.41378383       90      -0.04855850       0.03303422       0.01250184       0.00388391       0.04334346      -0.02845027
H       10.81091420       8.60148710       6.06007297       91       0.02814021       0.05974881       0.03871170       0.00074931      -0.03396425       0.10667102
H       12.98007925      12.63497208       5.41593816       92      -0.18828198       0.27800359       0.30509855       0.03290157       0.02195475      -0.04427364
H        8.66497747      12.64103037       5.41172006       93       0.04163233      -0.15291206      -0.14260454      -0.03741201       0.02173968      -0.04173468
H       10.81901187      11.20084927       8.84617979       94       0.03492216       0.11072082      -0.15953494      -0.00717353      -0.04777313       0.02806023
H       10.82385721      13.02682870       4.20987006       95       0.27121925       0.04564868      -0.13626114      -0.00295919       0.02880328      -0.09537349
C       12.01613135      20.04351471       5.89340656       96      -0.30868387      -0.68664155      -0.27519109       0.03299306       0.04790359       0.01584586
C       12.02343300      20.55757625       7.20132636       97       0.50833257      -0.00573400      -0.15134932      -0.15866140      -0.00371915      -0.03893127
C       13.32078303      20.73520011       7.91603719       98      -0.96138947       0.26047987      -0.42696136       0.01517034      -0.04422330       0.01554838
C       10.81323421      20.84295099       7.84525541       99       0.29885139      -0.29300150       0.25726464      -0.00399414      -0.00506214      -0.05613154
C       10.81009915      19.81158238       5.23270799      100      -0.37585499      -0.76632206       0.98222203       0.00452933       0.06164360       0.09544170
C        9.60488524      20.04286560       5.89412672      101       0.03063531      -0.54476510      -0.77776120      -0.02190501       0.05281848       0.01810706
C        9.60309917      20.55757625       7.20132636      102      -0.03925870       0.52279213      -0.38161671       0.15704759       0.00014560      -0.02830398
C        8.30809984      20.73541645       7.91727176      103       0.20822477      -0.43040287      -0.29384409      -0.01811640      -0.04505042       0.01688845
C       12.02901493       1.62396317       4.37417022      104      -0.81962895       0.93396583       0.58472403       0.01033154      -0.06271388      -0.02675053
C       12.03101673       1.11336348       3.06532450      105      -0.19283428       0.32300961       0.39562271      -0.15816311      -0.00700766       0.02306341
C       13.32406840       0.93747058       2.34814453      106      -0.45681915       0.46093766       0.57705974       0.03238194       0.02999867       0.01444447
C       10.82109827       0.82669053       2.42263001      107      -0.61825480       0.18986492       0.06033401      -0.00183983       0.00816237       0.05619690
C       10.82315230       1.85265000       5.03641200      108       0.40313460       0.89385051      -0.36493312       0.00159692      -0.04621687      -0.08963255
C        9.61668649       1.62634318       4.37406734      109      -0.17217570       0.00751953      -1.09478790      -0.01949046      -0.06279886      -0.02016154
C        9.61154812       1.11509440       3.06542738      110      -0.14839828       0.12514003       0.60515247       0.15550625      -0.00804084       0.02140978
C        8.31701075       0.93855239       2.34917334      111       0.23827358       0.26647953       0.18106072      -0.03980151       0.03271267       0.01189342
C        1.20063869      20.01922232       9.52189891      112       0.19721384      -0.02882045      -0.25930587       0.01084264       0.06552733      -0.02134926
C        1.20486900      20.52791768       8.21233303      113       1.35831688      -0.80319121      -1.54516528      -0.14638963       0.00578788       0.02465321
C        2.49916706      20.70058864       7.49453578      114       0.15107689       0.76600904      -0.34499224       0.03201071      -0.03381755       0.01333469
C       21.63225149      20.81569353       7.57005007      115       0.32531738       0.61315601       0.06271758      -0.00091118      -0.00487703       0.05508282
C       21.63158099      19.79289377      10.18465509      116       0.23796503      -0.86871371       0.40556320      -0.00523874       0.03947243      -0.09195418
C       20.42526439      20.01814050       9.52159027      117      -0.81536128       0.45878328       0.12832787      -0.00739432       0.05860696      -0.02139764
C       20.42257062      20.52813404       8.21264167      118      -0.35352501      -0.11625059      -1.21229148       0.15035851       0.00708048       0.01706079
C       19.12971227      20.70058866       7.49330122      119       0.00553622      -0.29492251       0.03957927      -0.03007386      -0.03472052       0.01401630
C        1.21145609       1.59870793       0.74969020      120       0.16522998       0.32680524      -1.71070187       0.01970652      -0.05339336       0.02279896
C        1.21285326       1.07724712       2.05452358      121       0.48164809       0.36035371       0.61463560      -0.16346542       0.00782303      -0.04025866
C        2.50722690       0.90003250       2.77211507      122       0.18221595       0.50213311       0.25461027       0.01695530       0.04134867       0.01939856
C        0.00165791       0.78860585       2.69474894      123      -0.16237888      -0.45123062      -0.77752805       0.00092860       0.00028846      -0.04597969
C        0.00665267       1.83369106       0.08837435      124       0.23297740      -1.11233063      -0.29935169      -0.00003071      -0.05841789       0.09540598
C       20.43694691       1.59978980       0.74691243      125      -0.70516684      -1.41278775       0.14220753      -0.03260403      -0.04894583       0.01898779
C       20.42904005       1.07876171       2.05226021      126       0.53334857      -0.27879245      -0.31825195       0.15729823       0.00428225      -0.03823523
C       19.13236265       0.90089802       2.76841137      127      -1.42763245       0.70206064      -0.69962259      -0.01983607       0.03839980       0.02166856
C        3.81057960      17.44003808       3.32221711      128      -0.58480114       0.45862004       0.57088594       0.05509764       0.02305116       0.01870766
C        4.32881098      17.44174757       4.62807929      129       0.51447996       0.54091938       0.08883176      -0.00472332      -0.17181260      -0.03607417
C        4.50605508      18.73603062       5.34536214      130      -0.90087394       0.95449286      -0.02629402      -0.04794457       0.01564321       0.00772103
C        4.61591045      16.23074272       5.26923057      131      -0.31645811       0.31157944      -0.87659539      -0.00501524      -0.01045754      -0.05239225
C        3.57728278      16.23554555       2.65997533      132       0.23994560       0.70040103       0.77740054       0.05611278      -0.00294640       0.09194740
C        3.80963989      15.02865135       3.31892493      133       0.64475178      -0.14066673      -0.32051172       0.04726132      -0.02493999       0.01629806
C        4.32743993      15.02105714       4.62530152      134       0.37588788       1.09207074      -0.52561549      -0.00200201       0.15858013      -0.03533445
C        4.50528572      13.72372150       5.33949795      135       0.30931453       0.15416723      -0.83681339      -0.04108489      -0.01879346       0.01582317
C        3.78815672       4.20775058       6.94669712      136       0.04243299      -0.16701374      -0.56679173       0.05990783      -0.00906667      -0.01602849
C        4.29834048       4.20257929       5.63764564      137      -0.63357884      -0.12217082       0.14768223       0.00313370       0.16124415       0.02035798
C        4.47183498       2.90786351       4.92077431      138       0.83236439      -0.10887092      -0.83514637      -0.04218588      -0.04406452       0.02902347
C        4.58592438       5.41250235       4.99464251      139       0.55937618      -0.53865000      -0.55100668      -0.00416050      -0.00695972       0.06215257
C        3.56123061       5.41440675       7.60904178      140      -1.25848220      -0.95530088      -0.33561826       0.04716874       0.00170700      -0.09369629
C        3.78801431       6.62043556       6.94597696      141      -0.18098239      -0.14414851       0.31617349       0.06378994       0.00442429      -0.03123916
C        4.29862972       6.62262068       5.63692547      142      -0.33875661      -0.25825130      -0.48274595       0.00542207      -0.15096126       0.01823830
C        4.47238846       7.91584547       4.91779078      143       0.18905577      -0.17756590      -0.19010472      -0.04467723       0.03619993       0.02503501
C       14.60663787      17.43443749       1.80390669      144      -0.61723275       0.44070603       0.81041405       0.06448214       0.01393564      -0.02383593
C       15.11530580      17.43748808       0.49434080      145      -0.20041186      -0.29533172       0.02273966       0.00409453      -0.15191975       0.02161938
C       15.28880058      18.73076045      10.06469643      146      -0.73417622       0.72101701       0.18603444      -0.03525316       0.04063172       0.01805973
C       15.40147093      16.22763373      10.13928479      147       0.28711350      -1.18709839      -0.58220136      -0.00764852      -0.00548171       0.06174715
C       14.38007051      16.22862504       2.46697151      148      -0.25908425      -0.69205431       0.92454527       0.04443291       0.00420548      -0.08908747
C       14.60591469      15.02240161       1.80442109      149      -0.15568599       0.87654850      -0.06730590       0.06230020      -0.01575809      -0.01953224
C       15.11458369      15.01831215       0.49495809      150       0.73302094      -0.63084655      -1.48307664       0.00689936       0.16221962       0.02009833
C       15.28867955      13.72450943      10.06603388      151       0.81337756      -0.44511758       0.75262263      -0.03964678      -0.04526365       0.01962513
C       14.62862060       4.20469658       8.46387585      152      -0.08839682      -0.16995117      -0.36277323       0.04835701      -0.02811559       0.01319463
C       15.14923316       4.19904968       9.76912076      153       0.32977605      -0.36910887       0.01263878      -0.00284216       0.15373557      -0.03180771
C       15.32734279       2.90296459       0.19742768      154      -0.23602711      -0.29156220      -0.64289531      -0.04682321      -0.01957467       0.01254990
C       15.43775119       5.40933678       0.12355948      155       0.12417532      -0.45884940       0.47749768      -0.00664037       0.00493905      -0.05166042
C       14.39323438       5.41094169       7.80492625      156       0.63072834       0.02872300       0.49661714       0.06137943       0.00313777       0.10141013
C       14.62674743       6.61629969       8.46624210      157       0.12549337       0.89946471      -0.57868533       0.05099684       0.02378776       0.01553211
C       15.14800768       6.62017286       9.77107548      158      -0.46546845      -0.83395158       0.53699562      -0.00353892      -0.16883753      -0.03463428
C       15.32551557       7.91570650       0.19989681      159       0.49153809       0.60136394      -1.75265885      -0.04381814       0.02183510       0.01329333
C        7.02497405      17.43054295       1.80236348      160       0.91583680       0.43910768      -0.00599927      -0.05855125       0.02112662      -0.01965800
C        6.51647849      17.43445900       0.49290048      161      -1.12013937       0.20473275       0.30507737      -0.00666120      -0.14906057       0.01876437
C        6.34377841      18.72881317      10.06449067      162      -0.23824332       0.70997631      -0.22915333       0.03497166       0.04301179       0.01925131
C        6.22904222      16.22482101      10.13784447      163      -0.71485110       0.53837956      -0.58802432       0.00800184      -0.00843129       0.05861558
C        7.25257089      16.22473051       2.46501678      164      -0.17582307      -0.39934876      -0.78721319      -0.04614772      -0.00693298      -0.09678129
C        7.02771280      15.01850709       1.80154044      165      -0.53767212       0.16154028      -0.04572482      -0.06537802      -0.00403170      -0.02358981
C        6.51705460      15.01528308       0.49259183      166       0.15384811      -0.55903674       0.20563193      -0.00385622       0.15900599       0.02312510
C        6.34409017      13.72191312      10.06212442      167      -0.74538330       0.05241577       0.56987832       0.03993968      -0.03732266       0.01894215
C        7.00995784       4.19712377       8.46644786      168       0.22818462       0.23902474      -0.07184046      -0.04996976      -0.02266327       0.02181820
C        6.48787455       4.19558782       9.77086972      169       0.06925877      -0.08061049      -0.26264403       0.00251427       0.16475072      -0.02877424
C        6.30940341       2.90101726       0.20010257      170      -0.10628484      -0.33131929       1.11359805       0.05177914      -0.01669005       0.00966097
C        6.19824720       5.40695677       0.12314796      171      -0.63007497      -0.22975171      -0.91302540       0.00207845      -0.00043718      -0.05206967
C        7.24323290       5.40185438       7.80441185      172       0.74217092      -0.55731216       0.28261024      -0.05893725       0.00461420       0.09469991
C        7.00765178       6.60894335       8.46222976      173       0.01676707      -0.45461431       0.92192522      -0.05236278       0.02250497       0.01366472
C        6.48751451       6.61649471       9.76778331      174       0.80240207      -0.27860670      -0.57054951       0.00585352      -0.15984902      -0.03834323
C        6.30909066       7.91375931       0.19444414      175       0.24234166       0.33930818       0.36657664       0.04731551       0.02436406       0.00787106
C       17.82562536      17.42878713       3.32046814      176      -0.47349450      -0.02012940       0.02894762      -0.04927270       0.03298965       0.01252097
C       17.30548815      17.43590576       4.62591880      177       0.42263964      -0.90856170      -0.38556730       0.00082594      -0.15922031      -0.03550908