304
Lattice="21.63717 0.0 0.0 -0.003217390455063572 21.636489760783718 0.0 0.00016878672533660936 -0.0001687616282665579 10.28804999723128" Properties=species:S:1:pos:R:3:spacegroup_kinds:I:1:momenta:R:3:forces:R:3 spacegroup="P 1" unit_cell=conventional energy=-2134.4523614376585 free_energy=-2134.4523614376585 stress="-0.0014124922899386256 -0.0013305690647345645 -0.0006977435255187936 -0.0013305690647345645 -0.0028090024604229672 -0.0015948080573271854 -0.0006977435255187936 -0.0015948080573271854 -0.003714455865406679" pbc="T T T"
Al      14.68638680      21.62186949      -0.01233818        0      -1.02490608       0.17555002      -0.95660053       0.13835404      -0.07270816       0.78979209
Al       6.90780096      21.61037524       0.07827175        1      -0.65949234      -0.20124885       1.21467302       0.28084647       0.27899798      -0.52436776
Al      16.21636110      20.09190248       7.75374268        2      -0.57442338      -0.70971847       0.73341054       0.05719454       0.91052018      -0.12245699
Al       5.37794676      20.15777642       7.77501390        3      -0.86627426       1.09594726       0.99370257       0.60657741      -0.12107782      -0.58473975
Al      16.23743807       1.49271418       2.52666251        4       0.25882179      -0.33650894      -1.51914293      -0.21191724       0.01299896       1.07966612
Al       5.43994214       1.54466935       2.60884906        5       0.39391815       0.72801095       0.55008371      -0.72621092      -0.95625059      -0.35532453
Al       3.92413444       0.02710992       5.17140542        6       1.18814999       0.31483748      -0.12914620      -0.20218213      -0.35031970      -0.34701238
Al      17.72392180      -0.01908356       5.20615287        7      -0.35250615      -0.25884459       0.73655420       0.24763420       1.05292383      -0.74673934
Al       5.37837969      12.34695216       7.72906717        8      -0.69014575       0.49047855      -0.11687571       0.15652172      -0.08956090      -0.21313947
Al       3.89834198      10.79978409       5.15749362        9       0.08801121      -0.02372472       0.42184552       0.10859772       0.20741501       0.42342301
Al       5.43213816       9.31465964       2.56741303       10       0.53729876       0.14713690      -0.27204650      -0.30863059       0.09189208       0.05759213
Al      16.23472287      12.32369143       7.70998243       11       0.12887899      -0.20380317      -0.50339882       0.11344393      -0.10955190       0.04869561
Al      14.72820628      10.84985950       0.00437607       12       0.70099045       0.57105892      -0.05535805      -0.24873898      -0.62771766       0.36851091
Al      16.24485952       9.32172874       2.60206391       13       0.41036418       0.63120547       0.02984555      -0.16846562      -0.50407166      -0.37795980
Al       6.91923548      10.86581588       0.00939446       14      -0.08192123       0.66298906       0.27911241      -0.32804258      -1.24429614      -0.09562338
Al      17.71001662      10.76007278       5.15235458       15      -0.57553387      -1.01321120       0.28931722       0.43894154       0.78618079      -0.22219669
H       15.59079022      10.58819464       6.12272118       16       0.21325029      -0.04024267       0.14439950      -0.93322733      -0.31292501      -0.42490639
H       16.21442859      11.44310278       3.40482530       17      -0.04303404       0.05116833      -0.00966086      -0.00598546      -0.60438494       0.49725836
H        5.29215167       0.67207502       8.68800180       18      -0.08448894       0.06178284       0.09029672       0.32540069      -0.59236435       0.29924444
H        6.07072459      10.82777317       5.99244025       19       0.07641862       0.02831993      -0.04621982      -0.26953803       0.03356504       0.22037722
H        5.52029421      11.49481080       3.42848607       20       0.08221373       0.11460098      -0.03818458      -0.37228951      -0.59375492       0.45899884
H       16.19753067      10.15566221       8.60975986       21       0.08174405       0.00510452       0.01114055       0.17840467      -0.01812669       0.01347231
H       16.86010318      10.98092211       0.85802952       22       0.13303055       0.08452353      -0.07274781      -1.15665844      -0.73578507       0.79252230
H        5.23252775      10.25261663       8.63438933       23      -0.04180481       0.12831011       0.12364885      -0.50138171      -1.63373647      -0.70143538
H       16.15205540      21.00935703       3.50562282       24       0.09596409       0.04141067      -0.00254307      -0.21866369      -0.66092093      -0.46358618
H       16.80138062      21.51219696       0.81727629       25      -0.14533606      -0.06718886       0.06155434       0.46591269      -0.02244170      -0.11311891
H       16.00725713       0.68228207       8.53596945       26      -0.16350444       0.00421767      -0.01224716       0.39565323      -0.72496645       0.26269732
H       15.64805357      -0.00983673       5.92437915       27       0.04388779       0.05316239      -0.08229403      -1.26792003       0.20638036      -0.67988995
H        4.75508726      21.54981008       0.91547174       28      -0.00747090      -0.01769470      -0.09421518       0.00190069       0.02289558      -0.00839097
H        6.05488653       0.20825295       6.03074584       29       0.12239367       0.11733830      -0.02038579      -1.27811043      -0.71359420       0.77826020
H        5.37290647      20.96688249       3.41527659       30      -0.06457405      -0.07248608      -0.11230064       0.05288115       0.66096910       0.36192813
H        4.78909337      11.05623382       0.83352349       31      -0.06968522       0.12939763       0.02635521       0.17733740      -0.55308397       0.46659029
H       12.91926439      19.54216078       5.51333465       32       0.08657655      -0.12500817      -0.05236207       0.45600608       0.24031778      -0.33804626
H        8.65260866      20.17036805       5.32792790       33       0.30236047      -0.01097841      -0.13603125      -0.22601991      -0.72486143      -0.17123190
H       10.78151343      21.13321174       8.89052590       34       0.05274258      -0.11170440      -0.19017595       0.14384435      -0.01063966      -0.57356487
H       10.83085797      19.39344960       4.24099588       35      -0.00763369      -0.16812435      -0.10971473      -0.09223580      -0.30777984      -0.48810409
H       12.93227081       1.79270023       4.93453590       36       0.18838492       0.08248881       0.14185053       0.75176501       0.28006778       0.17963790
H        8.75122847       1.77859150       5.03086532       37      -0.39071567      -0.01274313      -0.03120659      -0.84047328       0.15525896      -0.36115591
H       10.90303325       0.46397905       1.43747928       38      -0.20211023      -0.08001211      -0.05086724      -0.31126678      -0.31491307      -0.59142919
H       10.78748021       2.26257839       6.04940289       39      -0.13207664      -0.06159951      -0.13716410       0.04155103       0.12788989       0.08572290
H        2.21005202      19.76807559       9.89878136       40       0.14374140      -0.00340199       0.18105496      -0.37547659       0.09739619       0.21397627
H       19.47467082      19.63427503       9.89822792       41       0.01259717      -0.07795579       0.04036066      -0.89278077       0.06905015       0.64632658
H       21.52503716      21.08250470       6.51709605       42       0.16096823       0.17391686       0.04612366       0.48049777       0.53601025      -0.27603105
H       21.74575385      19.63132875       0.96604215       43      -0.00797227       0.07737381       0.05204126      -0.28293348      -0.56122028       0.51603068
H        2.17248832       2.06883991       0.35297764       44      -0.24675754       0.09162963      -0.13422011      -0.33303105      -0.45586499      -0.33582464
H       19.41702903       1.72132292       0.31570265       45      -0.02550254      -0.08109291      -0.21344002      -0.08495436       0.04262310      -0.37559477
H        0.00645560       0.33011992       3.67547207       46      -0.05241161      -0.03196182       0.04223502       0.08326873       0.14298591      -0.42218797
H       -0.05747608       2.05594247       9.31272638       47      -0.01783826      -0.00659928      -0.36309273      -0.03147502       0.67484533      -1.94347103
H        3.50340402      18.39241944       2.85746944       48      -0.12047254       0.10618758       0.02664049      -0.09883637       0.53749433      -0.04319811
H        3.52732401      14.16583231       2.80099015       49       0.09535510       0.10581641       0.08337675       0.16644699      -0.51927903      -0.18894495
H        5.04175162      16.26612512       6.24900152       50       0.14352589       0.05060023       0.23441859      -0.04602500      -0.04729429      -0.08237788
H        3.27037387      16.34396795       1.66469992       51      -0.04268817      -0.01731961      -0.07406363      -0.21150043      -0.13538006      -0.23208216
H        3.54546035       3.27972244       7.45983631       52       0.08351643      -0.17497760      -0.05332063      -0.02283054      -0.75936161       0.02364673
H        3.65720337       7.58171868       7.42009994       53      -0.02575060      -0.02709921       0.10369899      -0.22600325       0.00983780       0.19954521
H        5.01184133       5.31069592       3.96275857       54       0.02627010      -0.00422914       0.01166427      -0.05642293       0.33472072       0.20174615
H        3.07176472       5.35083606       8.57527277       55      -0.15229044      -0.04436925      -0.05544481      -0.14764142       0.00820265       0.22145946
H       14.39453140      18.43944124       2.20859982       56      -0.10119681       0.03192964       0.06681756      -0.25326553       0.42255916       0.50324429
H       14.29983443      14.09005859       2.20165949       57      -0.05571888      -0.04207933      -0.05323779       0.05109412      -0.42369831       0.23027210
H       15.72912021      16.19285926       9.05869603       58      -0.02189097       0.00751271      -0.14933222       0.36928900       0.18854525      -0.23446256
H       14.11235939      16.22598355       3.58303366       59       0.07694007      -0.10280010       0.22295285      -0.24683140      -0.31797768       0.22439689
H       14.45399295       3.24287577       7.90983278       60       0.03245874       0.18631586       0.08267301       0.00450457       0.35105779       0.27451229
H       14.52263764       7.58210815       7.87372387       61       0.25061627      -0.22478790       0.22320289      -0.02710937      -0.29925652       0.59156495
H       15.95853951       5.42724999       1.10305979       62       0.06221150      -0.09436284       0.03590287      -0.03057059      -0.20778480       0.48371941
H       14.15712080       5.38338599       6.76366240       63       0.06498292      -0.06307276      -0.11288262      -0.27736097       0.17312680      -0.41305529
H        7.33007152      18.36321849       2.36833387       64       0.11979237      -0.18026610      -0.17437269      -0.13296920      -0.54152098      -0.76556367
H        7.27274845      14.02421074       2.20715127       65      -0.12669809       0.15516431      -0.04697566      -0.24240953       0.64817934      -0.01657962
H        5.68900219      16.22399621       9.13864983       66      -0.10144357       0.12382064       0.10966238       0.23890460       0.14806605       0.20930278
H        7.56772689      16.15131775       3.45812575       67      -0.13570882      -0.01519501      -0.17414850       0.07811328       0.16393053       0.05370940
H        7.11828403       3.25785132       7.90400569       68      -0.04995833      -0.07362457       0.01905175       0.23713805      -0.23546790       0.13395831
H        7.21729147       7.54249140       8.06320492       69       0.06197316       0.14716434      -0.03106822       0.29408067       0.57651414      -0.62368966
H        5.66873614       5.51150436       1.02945394       70      -0.23050633      -0.07200988       0.17772420      -0.33445416      -0.34195111       0.79582754
H        7.75308509       5.42256663       6.82441837       71       0.10359852       0.03782769       0.09230290      -0.21712529      -0.17445139       0.25236326
H       18.06768221      18.32707674       2.74299616       72      -0.10970330      -0.10986579       0.07012108      -0.23518168      -0.04761468       0.36448058
H       18.09838834      14.04370748       2.89792663       73       0.04852452      -0.11481887      -0.03949998      -0.14760079       0.14585636      -0.00379265
H       16.77844963      16.17410862       6.27856214       74       0.00269444       0.11894197      -0.05975695      -0.41545403       0.25171741      -0.09088550
H       18.54986495      16.05478633       1.67218724       75       0.05252489       0.07039665       0.00502503       0.08615626       0.50567804      -0.40871693
H       18.12253667       3.29326863       7.46117789       76       0.00817005      -0.07556253      -0.23474461      -0.00617213      -0.12676045      -0.54507228
H       18.20641442       7.52770166       7.32285469       77       0.10837240       0.02121537       0.08153487      -0.04951788       0.25755538       0.42581600
H       16.49326838       5.46956171       4.07137047       78      -0.05708886      -0.19944996       0.14125235       0.23883154      -0.29599983      -0.02816155
H       18.50574140       5.37347888       8.57551053       79       0.03436694       0.00822547       0.16162570       0.17081444       0.06912037       1.04981470
H        2.16637545       8.97822895       0.28239079       80       0.08069703      -0.16435888      -0.11342856       0.37423355      -0.15060232      -0.00175894
H       19.46776742       9.13548657       0.36364552       81      -0.04138936       0.01463430      -0.04732380      -0.52478331      -0.24398846      -0.70841275
H       21.63143046      10.41077508       3.72264167       82       0.05209725       0.01443756       0.03052822       0.12673593       0.06966819      -0.31282134
H       21.61064147       8.73962340       9.30520775       83       0.13393120       0.17800575      -0.05737117       0.14613440      -0.08309668      -0.42505370
H        2.17957338      12.59597191       9.95792488       84      -0.08611693      -0.05234143       0.13770835      -0.20470601       0.06892999       0.34895978
H       19.47071596      12.72562170       9.99728159       85       0.28031763       0.06543448      -0.19066067       0.05974073       0.03485851      -0.11911753
H       -0.10809648      11.16072690       6.65901295       86       0.01455675      -0.02418895       0.03750133       0.21014936       0.06215660      -0.59200668
H       -0.01975248      12.98686086       0.91415292       87      -0.04252387      -0.08377902       0.01219459       0.02790742       0.17961352       0.49557792
H       12.90210673       9.06668191       5.01743839       88      -0.10086199       0.15769438      -0.01173083      -0.14656010      -0.07436934      -0.43486975
H        8.64517998       8.78746842       4.64678373       89      -0.04777924      -0.07493427       0.08900391      -0.44848612       0.25435000       0.66374984
H       10.82916064      10.44197662       1.41149854       90       0.12095365       0.04711920       0.07722274       0.01277385      -0.05078858       0.04795029
H       10.77948589       8.63073223       6.08711172       91      -0.15460246      -0.05810133       0.04870654      -0.23782954      -0.32751245       0.12094218
H       12.94606460      12.82560823       5.49657883       92      -0.16055709      -0.07820553       0.04803724      -0.14495997      -0.60270018      -0.27923528
H        8.73588818      12.54641019       5.35748462       93      -0.22963116       0.03238771      -0.00174121      -0.36376851       0.12908057       0.25910063
H       10.88736762      11.18956013       8.82449585       94       0.07220757       0.05633846      -0.07703721      -0.12061356       0.20779948      -0.09516946
H       10.85637172      13.02022637       4.18098243       95      -0.25900655      -0.02862696      -0.02753522      -0.40635724      -0.07887748      -0.29689661
C       12.01481497      19.98646683       5.89762819       96      -0.14491934      -0.66568523       0.66954174      -0.39377509      -0.59638622       0.54453389
C       12.02657558      20.54463882       7.18825019       97      -0.42782977      -0.42597850      -0.35405087      -0.25576728       0.17398862       0.06076088
C       13.28763196      20.76836724       7.90794740       98      -0.01602829       0.52843761       0.33893058       0.13959366       0.04449351       0.65803545
C       10.82563242      20.80436723       7.83681023       99      -0.18243133      -0.49790813       0.18071447      -0.31621619       0.29526225       0.35051243
C       10.80308554      19.74127852       5.25802866      100       0.23311638      -0.91798390      -0.23902416      -0.19161950       0.33962874      -0.05327640
C        9.57884633      20.03946404       5.87488423      101      -0.79633221       0.59574891       0.19705188       0.76555144       1.09899442      -0.59440111
C        9.63032472      20.59878055       7.14393833      102       0.36226774       0.46042912      -0.46420695      -0.45214379      -0.10088186       1.72003623
C        8.34427926      20.72703884       7.92702607      103       0.38157957       0.45940901       0.55973483      -0.36533170       0.70128101       0.22095447
C       12.01774244       1.68329564       4.39667854      104       0.10061683       0.40721148      -0.28337645      -0.32245464      -0.60086167      -0.73788625
C       12.00080606       1.14401782       3.09351427      105      -0.41124732       0.20854417       0.21805876       0.42998930       0.06119265      -0.19109837
C       13.30204210       0.95587357       2.36043818      106      -0.02099159      -0.11298014      -0.24893073      -0.41819521      -0.30808752       0.17235637
C       10.81372537       0.84447782       2.43367565      107       0.14767430       0.50608062       0.33402926      -0.05322847       0.43528428       0.91052911
C       10.81247187       1.93199250       5.01265952      108      -0.76226804       1.07139820      -0.11542755      -0.39000857      -0.02682455       0.39519529
C        9.59849685       1.67304226       4.37370803      109       0.38799589       0.94679396       1.08334043       0.76147661      -0.45326786       0.10017116
C        9.59232414       1.12435408       3.07517768      110      -0.35115349       0.06568544      -0.41806111      -0.27960229       0.30076184       0.15833813
C        8.30531126       0.93733029       2.35977412      111      -0.61916437      -0.39404609       0.09201776      -0.52247491       0.19052075       0.07573334
C        1.22333363      20.01072380       9.48054488      112       0.09823196      -0.40178960      -0.59760881      -0.37885688      -0.66311537       0.12924145
C        1.25582915      20.46644803       8.14356039      113      -0.68409588      -0.43059124      -0.17586243      -2.16220110       0.71077959       0.98755125
C        2.51739018      20.73236054       7.47888541      114       0.22673915      -0.26853726       0.12013620       0.15837664      -1.29111777       0.79637172
C       21.66075538      20.83185493       7.56045293      115       0.14588811      -0.25555382      -0.55521777      -1.09102838      -1.15495466       0.08596042
C       21.64780972      19.75997952      10.19246981      116       0.01573317       0.41071563      -0.65573999      -0.01676612       1.80414023      -1.82569019
C       20.38919477      20.03661766       9.53562398      117       0.09787763      -0.23207454       0.07295756       2.54291621      -0.74032003      -0.82704806
C       20.42239035      20.50529096       8.18605551      118       0.40893824      -0.23947222       0.55201762       0.96857670       0.14125111       1.25717433
C       19.12706952      20.68193498       7.47312406      119      -0.07013029      -0.27240017      -0.57945024       0.75648581      -0.31942159       0.44354668
C        1.22356593       1.61357201       0.67829956      120       0.00211215       0.39888646      -0.00902594      -0.59103208       0.19777599       1.74676199
C        1.22601355       1.09550805       2.05064083      121       0.12129095       0.28318571      -1.04587654      -0.35635449       0.26894781      -1.85046594
C        2.50793505       0.93497208       2.77006474      122      -0.38080869       0.66157490      -0.43815361       0.14636866       0.40396028      -0.02495142
C        0.02322512       0.75035106       2.65616074      123       0.72196692      -0.49282025      -0.18036465      -0.04352358      -0.02650919       0.63325451
C       -0.00581926       1.76760287       0.01919368      124      -0.77243662      -0.83064246      -0.47890721      -0.67871219      -1.05476569       2.76824511
C       20.38979756       1.50777297       0.73435057      125       0.19788503      -0.78391708      -0.52258898       1.85926247       0.61062043      -1.14126689
C       20.44193591       1.06210728       2.03213618      126      -0.31935024      -0.37220953      -0.20442298      -0.46234302      -0.56033141       0.72469284
C       19.13232681       0.89885293       2.77730578      127       1.45610110      -0.75791469       0.96192196       0.69639625      -0.27539107       0.62403522
C        3.76733268      17.48400758       3.36645722      128      -0.18160640       0.52242198       0.54139756       0.25017892      -0.02668735      -0.39762577
C        4.34970830      17.48191478       4.62408434      129       0.26357945       0.45172914      -0.17950078      -0.59721579      -0.41299997       0.21253593
C        4.47362158      18.74564911       5.36172425      130       0.51444762      -1.05789582       0.66224911       0.77732153      -0.13525258      -0.35406533
C        4.61966779      16.26896197       5.24263668      131       0.18389590       0.42765986      -0.18164254       0.51435830      -0.62202728       0.44243275
C        3.59789264      16.29404566       2.69632215      132       0.01846540       0.59311212      -0.01980742      -0.04766792      -0.34334543      -0.77817068
C        3.86114022      15.06455753       3.28970211      133       0.34192535       0.47374899      -0.36660085      -0.44555822       0.44731010       0.10901662
C        4.35807664      15.05360828       4.58965905      134       0.48955182      -0.59678447      -0.21699482       0.22129250      -0.75967822       0.34584670
C        4.52050921      13.72081314       5.29516422      135       0.01775192      -0.33590146      -0.06031556      -0.44932028      -0.39026288       1.32467622
C        3.77113332       4.18264735       6.92773976      136      -0.61699715      -0.68739810       0.14183046      -0.30466493       0.09930685      -0.16462372
C        4.26492495       4.18072702       5.62136484      137      -0.14981113      -0.52924475      -0.84535869       0.78839171       0.13722200      -0.68148615
C        4.51143047       2.88544888       4.89321741      138      -0.09406968      -0.48813045       0.35421251      -1.14419257      -0.00812424       1.03262359
C        4.59065234       5.39240251       4.97018926      139      -0.14203107      -0.00030385       0.05689314      -0.40336659      -0.46548894       0.47767160
C        3.46623848       5.36565174       7.56669747      140      -0.98930694       0.25602316      -0.69589468       0.62857982       1.79072131      -0.18574368
C        3.77923820       6.61266583       6.95106811      141      -0.09080903      -0.56406596      -0.39476255       0.14121135      -1.19601583      -0.81274944
C        4.28402211       6.60063063       5.61737514      142       0.10438304       0.02265227      -0.12620076       0.24101790      -0.01660092       0.08444286
C        4.49159504       7.91193746       4.89837836      143       0.02447665      -0.06572034      -0.08085257      -0.38795996      -0.62968423       0.89155858
C       14.57004366      17.45258369       1.83611916      144      -0.13940627      -0.30456090       0.01807633       0.80584649      -2.11975025      -1.15813087
C       15.10733623      17.39921477       0.50328692      145      -0.13023975      -0.52395835       0.04350643       0.01279982       0.30043027      -0.41595651
C       15.26988910      18.73528078      10.05153999      146       0.15781232      -0.70123042      -0.38375713       0.38986919      -0.81219630       0.60221982
C       15.43791277      16.19029958      10.09793479      147       0.39106299       0.29473837      -0.27403583      -0.87446220       0.67114309       1.07492287
C       14.37197785      16.20753805       2.53442593      148       0.29011877       0.39755496      -0.26933251       0.88950504       1.22644604      -2.21484754
C       14.60013115      15.03713205       1.78014626      149       0.02142527      -0.02159116      -0.62562668      -0.04099085       0.12592210      -0.04654477
C       15.14649315      14.98193579       0.44371784      150       0.03015424      -0.19629423       0.60974465      -0.31347737       1.09742473       2.13911014
C       15.35626297      13.67342244      10.10967945      151       0.57599011      -0.79060315       0.08493342      -1.08945365       0.24849466      -0.66595834
C       14.64194946       4.18855192       8.44111839      152       0.45210889      -0.56291958      -0.05405841       0.40465476       0.43745277       0.67345421
C       15.17644677       4.16959647       9.76678362      153       0.26725779      -0.21459287      -0.25092312      -0.33742786       0.36386199      -0.31574637
C       15.32288399       2.89942536       0.20030764      154       0.23599705       0.08089951       0.77884342       0.37156610      -0.40902953       0.80432528
C       15.44383348       5.36663461       0.16025410      155      -0.20500585      -0.42199015      -0.00868143      -0.25831175       0.90591113      -1.58982213
C       14.42968144       5.42582834       7.80715388      156       0.63257693       0.35831894      -0.31506367       0.18518240      -0.69731402      -0.05504239
C       14.64586291       6.64707754       8.44629092      157       0.55323927       0.24984794      -0.18962008       0.36341284      -0.90226426       0.46370378
C       15.12460589       6.57769287       9.78623450      158      -0.33403974       0.17312923      -0.02165976       0.34884645       0.80820716      -0.61638615
C       15.38911555       7.92054915       0.12764668      159       0.98661792      -0.40539834       0.38072824      -0.50919585      -0.25266112       1.54294811
C        7.09735834      17.43911850       1.78843114      160       0.41648011       0.17178417      -0.51978552      -1.03330771      -0.13991879      -0.20158180
C        6.45016934      17.44414709       0.50737130      161      -0.19251148       0.49465540       0.24284614       1.16750420       0.15056317       0.43097614
C        6.34025378      18.74871294      10.08464882      162      -0.09061536      -0.33067516       0.64823342      -0.74393551      -0.83087161       0.05541531
C        6.17964990      16.24425718      10.11922080      163      -0.28843465      -0.31248403       0.24808403      -0.15229078      -0.58158738       0.55335616
C        7.23064229      16.20315966       2.42094661      164       0.01469956      -0.03682960       0.16316919       0.56953246       0.54732445       1.08153349
C        6.99544094      15.01109028       1.78112572      165      -0.23226595      -0.80408359      -0.40981476       0.16336289      -1.10377618      -0.63676229
C        6.50659607      15.01966725       0.47076712      166      -0.63922370       0.35994812      -0.63878312      -0.43883663      -0.19349494      -0.17809761
C        6.28868062      13.68802297      10.09077045      167      -0.46425270      -0.55759841       0.20450337       0.35316612       0.47406160      -0.97671978
C        7.01627643       4.18963836       8.45181523      168      -0.36538110      -0.26006795      -0.12504330      -0.54561416      -0.53486771       0.77707786
C        6.49424650       4.18242940       9.78241455      169       0.02885054      -0.05589316       0.31327283      -0.06528609       0.31084828      -0.53440055
C        6.31021204       2.89748057       0.23949194      170       0.07112372       0.50651742      -0.51393157       0.16575647       0.76123215      -1.02351221
C        6.14781333       5.40214158       0.08382908      171      -0.38696608      -0.19503657      -0.44955868       0.47323365      -0.30774188      -0.30291979
C        7.30189126       5.38056240       7.82795055      172       0.72153096      -0.11352972       0.15089125       0.24926661       0.54404050      -0.79732578
C        7.02045445       6.57953685       8.47830222      173       0.44121655      -0.62469744      -0.59052757       0.58434803      -0.05261987      -0.67502746
C        6.53765902       6.57733462       9.75024621      174       0.39143286      -0.36260620       0.58611763      -0.73677566       0.95000400       1.13834102
C        6.34815356       7.90350561       0.18638227      175       0.88240618      -0.75928257      -0.49764336       0.15135682      -0.42485770      -0.45229079
C       17.81063507      17.40898641       3.28928418      176       0.42000632      -0.20087380      -1.20251280       0.63745620      -0.28082287      -0.81394234
C       17.31420175      17.41650531       4.61279930      177      -0.13726762       0.49285795       0.19349221       0.07429823       1.70106052      -0.47931813