304
Lattice="21.63717 0.0 0.0 -0.003217390455063572 21.636489760783718 0.0 0.00016878672533660936 -0.0001687616282665579 10.28804999723128" Properties=species:S:1:pos:R:3:spacegroup_kinds:I:1:momenta:R:3:forces:R:3 spacegroup="P 1" unit_cell=conventional energy=-2129.7197216872055 free_energy=-2129.7197216872055 stress="-0.0021544985022537507 -0.0013139102377502847 -0.0009624711197609473 -0.0013139102377502847 -0.0029339933181641116 -0.00012009024340729719 -0.0009624711197609473 -0.00012009024340729719 -0.004194590425774694" pbc="T T T"
Al      14.72053545      21.66634642       0.01067432        0       0.14082301       0.55876191      -0.07364818      -0.30556057      -0.81196119      -0.03944115
Al       6.96012166      21.65321957       0.04546109        1       0.71488994       0.58533050       1.43766506      -0.88898171      -0.13845155      -0.91237524
Al      16.23435482      20.09812175       7.74179848        2      -0.24875398      -1.72049837       0.14934405      -0.17230750      -0.94559448      -0.65374972
Al       5.37960629      20.13678835       7.71947934        3      -0.58374704       0.64539774      -0.78247463       0.15138372       0.36513603       0.07058619
Al      16.23444330       1.51382089       2.58881830        4       0.46433337      -0.27599040       0.14940349      -0.74692900      -0.67322754      -0.57873960
Al       5.44396995       1.50413186       2.59109917        5       0.83124260      -0.43216947      -0.54345193      -0.15899100      -0.41449221      -0.19778372
Al       3.85826625       0.01004056       5.15236112        6      -0.90817145      -0.29435041       0.00407612       0.74851889      -0.22719397       0.33372693
Al      17.76266778      -0.00786942       5.09163717        7       0.73104100      -0.02998323      -1.24781264      -0.29765385       0.57346554       1.38782548
Al       5.40481920      12.35510790       7.75875235        8      -0.05061561       0.47592470       1.35014924      -0.49410496      -0.71323542      -0.46279180
Al       3.88946238      10.78628069       5.15771304        9       0.34495160      -0.82089590      -0.41598820      -0.30438371       0.54683812      -1.13285084
Al       5.44593941       9.31223690       2.56597180       10       0.90335592      -0.47076465      -0.01130591       0.00861208       0.02735216       0.73330371
Al      16.31106923      12.34796990       7.78537155       11       2.22438254       0.32171119       0.62154544      -0.86732002       0.32022647      -0.31830599
Al      14.70948500      10.79300379       0.03886934       12      -0.20794231      -1.44079850       0.55507734      -0.48049642       0.53093453      -0.37986180
Al      16.22021101       9.30802250       2.59171766       13       0.28329979       0.20611407       0.30126788      -0.05055332      -0.40840976       0.35184698
Al       6.89319257      10.82024691       0.06234063       14      -0.67900319      -0.06794455       1.35945081       0.50549694       0.20368254      -0.48123794
Al      17.75804576      10.80800400       5.13968621       15       0.06306167      -0.32138158      -0.19070303       0.02512048       0.13915260       0.61388962
H       15.80912104      11.12387915       5.91695912       16       0.20164876       0.31241272       0.11532170      -3.17966686       0.05286914      -2.15442572
H       15.88562442      11.33369700       3.53435398       17      -0.11795094      -0.06406013       0.15753505       0.21537287       0.44603351       0.11867942
H        5.36642172       0.74046213       8.61889105       18       0.04569765       0.30424607      -0.08360331       0.49440668      -2.51985859       1.17597369
H        5.99193180      10.96133243       5.91062857       19      -0.22809485       0.06624953       0.00545346       1.47373292      -0.20400056      -0.88108180
H        5.68780845      11.42585434       3.49521339       20       0.23541419      -0.15710175       0.16377578       0.30100820       1.16914221      -0.46081249
H       16.35621604      10.17113111       8.59680977       21       0.19922480       0.12551652       0.00824594       0.08583910      -0.47396388      -0.35184131
H       16.67865089      10.79739485       0.79728107       22      -0.20813745      -0.14959153       0.15784493       2.15639304       0.36299984      -1.11246127
H        5.38683289      10.16853160       8.57829399       23       0.02019270       0.01517998       0.09571643       0.23052695       0.54331302       0.28311646
H       16.39110239      20.92388154       3.55761246       24      -0.01388683      -0.14439833      -0.05107953      -0.56382773       0.83035171      -0.17896558
H       16.92183993      21.66136304       0.82741676       25       0.10616986      -0.04143235      -0.14052008      -1.57120097      -0.00335374       0.71845292
H       16.32781387       0.33591459       8.38123564       26      -0.00806505      -0.06692182       0.08329245      -0.03678755       1.28013598       0.32376822
H       15.47771007      -0.04896866       6.31934215       27      -0.26884659       0.05692303      -0.00322439       1.62936686       0.18347196      -0.46915255
H        4.87876995      21.26765927       1.17140198       28       0.07550186      -0.25266744       0.28325711      -0.27552331      -0.06517830      -0.24079086
H        6.02050170      -0.27154234       5.81049178       29       0.05881156      -0.39601895      -0.10503362       0.30094167       0.22351489      -0.15060199
H        5.58923819      20.85434561       3.63181468       30       0.14274589       0.05269677       0.13092022       0.09543753      -0.41851522      -0.50115642
H        4.81384042      10.45661448       0.87331077       31       0.12859334      -0.13665877       0.00890233      -0.94482942       0.47539295      -0.77908289
H       12.85665968      19.88915766       5.21835374       32      -0.14894799       0.15243028       0.21381568       0.15103375       0.20968977       0.72882811
H        8.63913120      19.65037902       5.48063235       33      -0.14510910      -0.21040828      -0.07912373      -0.38613379       0.15319000      -0.09308949
H       10.77199841      21.36670751       8.83014538       34      -0.03523649       0.00773839       0.20701686       0.09155154      -0.25551039       0.58122285
H       10.81032824      19.66706483       4.22465594       35      -0.24758325       0.10068388      -0.26671060      -0.20325845      -0.34302115      -0.20036115
H       12.91428390       1.97746319       4.80239499       36      -0.15143968       0.13336304       0.11931484       0.83934592       0.09995833       0.37705328
H        8.66118252       1.64246662       4.74859197       37      -0.06194460      -0.00083543       0.26423394      -0.53976363       0.28298880       0.57635996
H       10.81291800       0.40585552       1.46384655       38       0.03970300      -0.08032482      -0.47182808       0.13672933      -1.09363353      -2.89566359
H       10.82045090       2.19942075       6.11359257       39      -0.32745457      -0.16822413      -0.08396626      -0.33466249      -0.24925825      -0.30190111
H        2.04649598      19.62447311       9.89439767       40       0.45401607      -0.08736509      -0.11996869       1.75088548      -0.17303992       0.64669184
H       19.51602394      19.70829799       9.92838635       41      -0.25460789      -0.18287288      -0.05630857      -0.46593655       0.09873821      -0.03553800
H       21.70369497      21.05549008       6.45193757       42       0.01427833      -0.06808775       0.04780025      -0.29649613       0.17464087       0.17186855
H       21.64133434      19.61158927       0.92353565       43       0.00026357       0.08577980       0.14774001      -0.24339437      -0.19875748       0.19385949
H        2.13730853       1.80393492       0.15352567       44       0.10947054      -0.14965861       0.03708015       0.47338743      -0.24466975       0.33162537
H       19.52051891       1.87072277       0.18040557       45       0.24639510       0.00187916       0.05402605      -0.05413709      -0.16796174       0.36658694
H       -0.16414439       0.29016324       3.62986557       46       0.18101739       0.06693003      -0.00445885       0.47625312       0.01353042       0.70363365
H        0.06783338       2.24242213       9.38278060       47       0.08133326       0.09958014       0.12522907      -0.08722547      -0.00597111       0.75675971
H        3.75501511      18.42736324       2.85042546       48       0.12289995       0.33315463      -0.23397188      -0.27061656       0.69063465      -0.42547651
H        3.29453205      14.03024134       3.11697852       49      -0.12379194       0.26435106      -0.10120116       0.20143245       0.34551399      -0.96325639
H        5.16380589      16.15174329       6.14978026       50       0.15134676       0.01236970       0.04245526       0.06190275       0.15653850       0.80261540
H        3.41182685      16.30449290       1.52153937       51       0.18936989       0.04704424       0.13983120      -0.39968748      -0.01778619      -0.10735227
H        3.53230833       3.25148428       7.42851163       52      -0.03105775      -0.06375394      -0.05463605       0.24882545       0.17831277      -0.19954862
H        3.46997494       7.53447083       7.39591428       53       0.08772609      -0.18029024      -0.06855706       0.29036030       0.11532667       0.00375178
H        5.15928192       5.46270200       4.07435535       54       0.07061400       0.00261243      -0.29179425      -0.11968651      -0.22567105      -0.60523235
H        2.88661165       5.32569599       8.41623696       55       0.07161040       0.11081491      -0.14787069       0.22690736       0.36986720       0.68684437
H       14.47111345      18.30603367       2.33989154       56       0.03668509       0.09801124       0.15798991      -0.00139438       0.15290325      -0.15740362
H       14.31145499      13.98772064       2.18578682       57      -0.05222346       0.02967350      -0.15507132       0.17455804       0.84148898      -0.04554842
H       15.86977987      16.22726241       9.18538835       58       0.15616067      -0.09985978      -0.06158091      -0.14900229      -0.17452231       0.09622962
H       13.78089453      16.08130586       3.42750810       59      -0.15860348      -0.11111666      -0.17806351       0.39081996       0.47796206      -0.49405397
H       14.52940812       3.21832521       7.93313355       60       0.05435879       0.09738989       0.12553905      -0.19455832       0.35709820       0.34995573
H       14.40697315       7.50631857       7.90175200       61       0.16057081      -0.14543328       0.29655249       0.12797452      -0.10838807       0.55137488
H       15.69687681       5.37544753       1.21014456       62      -0.22065071       0.21431416      -0.32664808      -0.01026196       0.23541393      -0.37195476
H       13.82394314       5.43767151       6.89139217       63       0.11363339       0.01874051       0.23851084       0.73604281      -0.16959313       0.41908004
H        7.23403360      18.39764249       2.30494380       64      -0.13580788      -0.04275412      -0.08352806      -0.04935053       0.18568199      -0.05156310
H        7.57451973      14.08258883       2.15171837       65      -0.04188304       0.14438094      -0.09824135      -0.57230603      -0.16558193       0.38829361
H        5.89183914      16.28698908       9.05024651       66       0.01078392      -0.04868348      -0.21639896       0.14036987      -0.32889793       0.43089582
H        7.58177428      16.28849731       3.53047558       67       0.01164660      -0.02711838      -0.11923090       0.24603137      -0.11214191      -0.34392164
H        7.23800505       3.14055129       7.96917318       68      -0.07526287       0.30549533       0.00364014      -0.16645573       0.91102533      -0.01249461
H        7.28501162       7.45323443       7.97580921       69       0.06407116       0.15549215       0.11060590       0.00563179       0.86106477      -0.02118373
H        5.74339008       5.29452637       1.09275212       70       0.05778319      -0.15282523      -0.02239819      -0.02588623       0.04659455       0.14476132
H        7.54355525       5.53703032       6.74520524       71      -0.10430674      -0.06622679      -0.06680306       0.11479021      -0.39621535      -0.49489842
H       18.08003889      18.44524181       2.94340651       72       0.20793945      -0.25095456      -0.19008404       0.30183436       0.34029007      -0.64452767
H       17.98003304      14.11156186       2.84651091       73      -0.06158514       0.06446066      -0.20207110      -0.05364139       0.02998218      -0.24314174
H       16.74475436      16.23991007       6.29625231       74       0.16230737      -0.05654073      -0.11594242       0.03897112       0.01091049      -0.35821111
H       18.35882085      16.20931277       1.62612461       75       0.06590198      -0.00934314      -0.11681535       0.38721141       0.00735513      -0.38692828
H       18.29188649       3.31905547       7.33630672       76       0.10953497       0.15546796      -0.07507168      -0.40617836      -0.15366688      -0.10495896
H       18.04446790       7.52062818       7.53255663       77      -0.08393995      -0.12604681      -0.33551342      -0.20084043      -0.41934786      -0.93628471
H       16.65008871       5.35870536       3.96577649       78       0.04410383       0.07295792      -0.10316954      -0.17782376       0.37080169      -0.58328541
H       18.50756619       5.53567102       8.52067875       79       0.16999974      -0.22597292       0.08429331       0.02456840      -0.65384341       0.37142027
H        2.07627873       9.04412521       0.19510849       80       0.00745267       0.08441273       0.01861740       0.44573802      -0.04133274       0.20956587
H       19.48195267       8.95510010       0.27547898       81       0.05368418      -0.02121786       0.03582198      -0.04096670       0.01263077       0.05702840
H       21.77288974      10.26651302       3.81935164       82      -0.24012096      -0.01665706      -0.02132130      -0.67497557       0.41431391      -0.33856996
H       21.65518349       8.52203968       9.36116865       83      -0.02801594      -0.00358655       0.15355071      -0.07391193       0.15584213       0.18461435
H        2.14459843      12.31521595      10.17974111       84      -0.03424035      -0.17680195       0.17428108       0.14788127       0.46740023      -0.39153380
H       19.50155426      12.90396362       9.87649342       85       0.08693985       0.10718710       0.05391254      -0.29297849      -0.02135985       0.44842184
H        0.08772582      11.30243268       6.57427398       86      -0.08189567      -0.03003492      -0.16570560      -0.41380995      -0.12781230       0.04344302
H        0.01536639      13.00713562       0.94853855       87       0.10642392      -0.17642901      -0.25899022      -0.08173985      -0.09418870       0.11921022
H       12.94500215       9.21153740       5.09236950       88      -0.14983245       0.13118867       0.13203114      -0.28401395      -0.18346399      -0.53185679
H        8.64689023       8.79242356       4.74005679       89      -0.13677845      -0.04096240       0.06671271      -0.21580314       0.41778739       0.30494250
H       10.87068533      10.56326038       1.46941375       90       0.01067198      -0.12030967       0.00673363      -0.05619768      -0.33773313      -0.31293688
H       10.69195154       8.69923189       6.13556526       91       0.00585789      -0.10800723       0.04746419       0.25340723      -0.11519096      -0.31300171
H       12.99010642      12.42444129       5.40687422       92      -0.20925463      -0.13157493      -0.01000230      -0.62550313       0.48254084      -0.01637106
H        8.53069451      12.61325768       5.75445810       93       0.08943319       0.21676143      -0.41739097      -0.00238029       0.56535953      -1.36056703
H       10.90074035      11.23802163       8.87230339       94       0.22422357       0.01317122      -0.09741840      -0.15487411      -0.58791590       0.18311636
H       10.79104499      12.68875899       4.13825111       95       0.02785876      -0.25692568       0.16899926      -0.11395534       0.47327436       0.08635935
C       11.99018204      20.07862317       5.86603092       96       0.10872488       0.74801362      -0.06642146       0.57423773       0.45401874       1.77277026
C       11.99579643      20.51695242       7.24024484       97      -0.24513120      -0.32780363       0.28366669      -0.15122322       0.07303300      -1.01978534
C       13.27160382      20.79411480       7.87608111       98       0.60525898       0.05442737      -0.12880996       2.14219679      -1.35756585       0.67082905
C       10.80112724      20.77450623       7.93092624       99      -0.84464041      -0.99263277      -0.10472104      -0.10829545       0.59905273      -2.15224049
C       10.78327422      19.87963101       5.29142273      100      -0.34470476       0.77711081       0.07270759      -1.24705082      -0.37662488      -1.95141041
C        9.54642102      20.01491135       5.92777919      101      -0.30916304      -0.32349768       0.60973158       1.50062285       0.17333676       0.25217042
C        9.61207947      20.60535438       7.18111663      102      -0.22188150       0.57092298       0.45183641      -1.17250345      -0.79868042       0.88144340
C        8.30374233      20.74813481       7.87769561      103       0.05233905      -0.06152775      -0.49216679      -0.76392090      -0.17303437       0.46779454
C       11.99365152       1.65216415       4.37529535      104      -0.51766905       0.23432189      -1.17299453      -0.44967898      -0.52529135      -1.33320394
C       12.05019726       1.13079386       3.00483707      105      -0.20463390       0.77337990       0.59234508      -1.23902072       1.25109434       2.42158378
C       13.32910339       0.99281826       2.32599396      106      -0.45009737      -0.04524712      -1.23547067       0.42150348      -0.87955506      -0.23555489
C       10.84352830       0.86899426       2.36893643      107       0.37201214       0.04533231      -0.43883024      -0.52266590       0.27509620       2.22741065
C       10.79065019       1.80005128       5.08953101      108       0.59629834      -0.69616110       0.07471221       1.03958122      -0.08298403      -1.39137864
C        9.64574069       1.53427239       4.33936610      109      -0.16318879      -1.12750686       0.27132943      -0.81367647      -0.04944572       0.85657947
C        9.61768642       1.06350388       3.03078766      110      -0.03442988      -0.32063668      -0.48604630       0.76566512       0.45462257       0.28588220
C        8.29764746       0.93372615       2.35666495      111      -0.29022691       0.26277771       0.48484333       0.17517049       0.42348502      -0.06128336
C        1.17882860      20.05638895       9.50810550      112       0.44346226       0.97559406      -0.82015486      -0.80990322       0.71518824      -1.15258078
C        1.15352665      20.64454593       8.21973737      113      -0.73418345       1.08710836       0.45722840       0.92276436      -1.53453238       0.33613301
C        2.44348619      20.68614906       7.49290583      114       0.22973410      -0.56312462       0.37441200       1.26586437       0.02734935       0.60229654
C       21.60929694      20.78791135       7.50639117      115      -0.06276994      -0.36404691      -1.06852651       0.36566101       0.56445097      -0.24978532
C       21.63988445      19.90002525      10.16832581      116      -1.78057480       1.44311540       0.02279272      -1.89375524      -0.06617645      -0.53729660
C       20.41430259      20.02973138       9.42383948      117       0.04982015       0.04871262       0.13958726       1.22688493      -0.18256668       2.15300780
C       20.39317448      20.56543586       8.15535360      118       0.68333282       0.34612736      -0.50457520       1.54191873      -0.55897714       0.94732244
C       19.12941157      20.74018221       7.53982192      119       0.46594423       0.98186980       0.21299400      -0.24368746       0.01343492      -1.03691671
C        1.26482750       1.54084678       0.74009663      120      -0.48793111      -0.64495531       0.45048969      -1.43956422       0.12061893       0.95394332
C        1.25512110       1.00676356       2.08321807      121      -0.07880473      -0.52775436      -0.00993440      -1.40792042       0.89630407      -1.54370225
C        2.51967285       0.89894670       2.78663787      122       0.43890837       0.37924518      -0.55276996      -0.18650283       0.14943010      -0.48114650
C        0.00095208       0.81467314       2.70625740      123       0.36233881      -0.02859837       0.04589240       0.21846358      -0.51912854      -0.92507420
C        0.03920075       1.88971525       0.15383229      124       0.35028543       0.35882634       0.94547153      -0.20749883      -0.59995167      -1.03079786
C       20.41858755       1.60719901       0.74509796      125       0.14484742       0.47366772      -0.73546273       1.39715106       0.81045626      -1.08106994
C       20.44493157       1.09642939       2.02626960      126      -0.25789406       0.41471888      -0.45511678      -0.99842203       0.28450924       0.49719197
C       19.14946753       0.95101026       2.73880126      127      -1.03410087       0.98993240      -1.16927410      -2.88191001       0.50793565      -0.64701705
C        3.84912248      17.47195649       3.31157085      128       0.41364663      -0.24044720      -0.21196660       0.16019570      -1.68789010      -0.26234203
C        4.34271211      17.42866259       4.63067413      129      -0.34710206      -0.25004583      -0.70751183      -0.43478017      -0.30479801      -0.84174110
C        4.54606337      18.69594262       5.33390965      130       0.86320660      -0.47866924       0.26149838      -0.19801935       0.67823982      -0.02884283
C        4.62643004      16.20533686       5.22572998      131       0.44567796       0.09310438      -0.56601210       0.84700191      -0.00211842      -0.25173778
C        3.58770535      16.27844219       2.59090953      132       0.30962193       0.10411051      -0.61709855       0.92202621      -1.19770284       1.62101519
C        3.75964456      15.00839404       3.29333814      133      -0.60833073       0.37988164      -0.23004478      -0.35128466       1.37016986       0.24200760
C        4.39698901      15.01145199       4.55616387      134       0.55407333      -0.69267503      -0.93644041      -1.11306413      -0.09182362       0.14170185
C        4.48250048      13.72374272       5.35929777      135      -0.14114395       0.98104814      -0.71426750       0.79043174       0.30875984      -0.91023140
C        3.83303984       4.18892532       6.94211080      136       0.65328625      -0.68999019      -0.41825455      -0.34740203      -0.10538495      -0.29672698
C        4.28812045       4.18738695       5.61108945      137      -0.46440393       0.63485612       0.22752488       0.37342443       0.34165350       0.08271594
C        4.47267070       2.89790346       4.89806627      138       0.26864106       0.40374311      -0.06663197       0.18213480       0.55734797       0.35926461
C        4.58689079       5.40200449       4.98500898      139       0.76037257      -0.09448078      -0.30630957       0.50345722       0.58246395       0.55070352
C        3.55488888       5.40009993       7.56881088      140      -0.48629883      -0.05750414       0.12663208      -0.50301728      -0.39780485      -0.34507592
C        3.83143611       6.61488119       6.93586239      141       0.55304816       0.02218719      -0.49869008      -0.89113198      -0.15581501       0.64024023
C        4.31950988       6.61521756       5.64229755      142       0.35212352       0.31147394       0.97760723       0.69350745       0.65486019      -0.01450563
C        4.56386564       7.98034394       4.99491059      143       0.30387291       0.06233038       0.74499019      -1.26880060      -1.62983877      -0.61115087
C       14.63898454      17.37210952       1.80426756      144      -0.18088383      -0.84342730       1.30115095      -1.03825308       0.12013396       1.66303739
C       15.07501564      17.36208066       0.50754243      145      -0.32304227       0.05113054      -0.94227455       0.91198045       2.54602751      -0.83406374
C       15.29863529      18.79484541      10.10279654      146       0.23425665       0.20695954       0.20549612      -0.70063968      -1.26023990      -0.89041346
C       15.40232336      16.17096480      10.17421972      147       0.14969372      -0.46135720       0.21822213       0.76623973       0.97391099      -1.55699759
C       14.28479633      16.17108485       2.44211487      148      -1.19426535      -0.49952754      -0.72461478       0.06386941      -0.31798729       0.27377405
C       14.57981817      14.99448708       1.78165346      149      -0.29437083      -0.70976543       0.19327037      -0.53953328      -1.61448485       0.22423292
C       15.12880130      14.97134565       0.48799793      150      -0.11489134       0.18376372       0.01960500      -0.43665860       1.02485381       1.46610247
C       15.28632758      13.73947605      10.09665708      151      -0.12723719      -1.08007556      -0.44268915       0.28577955      -2.42168846      -1.61032429
C       14.62870026       4.17527687       8.47026237      152       0.30381902      -0.46687635       0.02069392       0.65793862      -0.08753781      -0.40585154
C       15.16220952       4.23029531       9.75227294      153       0.10112587       0.19059792       0.39252780      -0.64990444      -1.29424997       0.66712060
C       15.26770195       2.86483548       0.16375686      154      -0.37561914       0.83719369      -0.42787998       1.41324914       1.84115886       0.90176152
C       15.36459867       5.44439235       0.16659537      155      -1.03767600      -0.41850468       0.85951647       0.02289303      -1.38430338      -0.08178235
C       14.39439347       5.38630090       7.85220177      156      -0.37580954       0.11637807       0.25444430      -1.31388452       0.52754391      -1.26186272
C       14.63177698       6.60269502       8.49368739      157       0.25115441      -0.01904928      -0.28381759      -0.32848037       0.22271063      -1.08367946
C       15.07490443       6.63953364       9.80522708      158      -0.82602836       0.30219320       0.38247928      -0.14123607      -0.66219500      -0.14894488
C       15.22659640       7.90224596       0.22253404      159      -1.34147070      -0.28933206      -0.11050188       0.13790780      -0.04821204      -0.59137714
C        7.03236994      17.45424019       1.81300937      160       0.46986756      -0.51950565      -0.50259801       0.06504582      -1.15456217      -0.79989764
C        6.58024160      17.40392322       0.46575323      161       0.89639226       1.02281526      -0.09792395      -0.17872052       1.55873164      -0.17573271
C        6.39416780      18.73674488      10.01874677      162       0.91486666       0.12468698       0.02898349      -0.02992408      -0.20728479       0.78319802
C        6.28221166      16.22803494      10.07778853      163       0.73313266      -0.38456564      -0.27693840       0.13439251      -0.36203852       0.93464913
C        7.31068740      16.24105700       2.46405307      164       0.02286688       0.71998639       0.22298083      -0.85788744      -0.24293938       0.59151783
C        7.04716614      14.98895915       1.85401308      165       0.52072322      -0.13766370      -0.01868081       0.75403242       1.71949732      -1.82748470
C        6.53643865      15.03936120       0.50557808      166      -0.26616719      -0.38843600      -0.36664078      -0.28757696      -1.13620742      -0.02589638
C        6.33563100      13.70143874      10.09633431      167      -0.00640030       0.42827099      -0.02286394      -0.26723076       1.18970017      -1.21150201
C        7.00517929       4.15477131       8.36739040      168      -0.26698824      -1.24741081      -1.14055014       0.06697512      -0.71134425       0.63240442
C        6.54774003       4.19860680       9.71053505      169       0.18438341       0.81852518      -0.20141713      -0.80970165       0.85900800       0.42732471
C        6.36073780       2.96491595       0.17025734      170      -0.01978493       0.43707496       0.46766594      -0.66019376      -0.94582163       1.18127637
C        6.19440128       5.37109231       0.11083381      171       0.26854502      -0.66866045      -0.15212969       0.38714491      -0.15090303      -0.47425406
C        7.19381354       5.37164726       7.75041517      172      -0.56458069       0.14982524      -0.54664909      -0.13993570       1.23587900       0.96399706
C        6.99907929       6.56838118       8.50454900      173       0.29851597      -0.65235617       0.14563288       0.36238762      -0.99147596      -0.86558832
C        6.52520370       6.59568158       9.81696786      174       0.33367184      -0.60545077       0.73323684      -0.78545054      -0.04833848      -0.23737669
C        6.26269243       7.90247656       0.19068764      175      -1.33618339      -0.25186529       1.42632699      -0.15558727      -0.26661331       2.19244869
C       17.90951225      17.45890684       3.32489441      176       0.98332363       0.56510882       0.17707959       0.16747836      -0.24658755      -0.26494651
C       17.42745467      17.41519556       4.60667325      177       1.03425834      -0.10525270       0.39923136      -1.25320420       0.05482879       2.21615421