304
Lattice="21.63717 0.0 0.0 -0.003217390455063572 21.636489760783718 0.0 0.00016878672533660936 -0.0001687616282665579 10.28804999723128" Properties=species:S:1:pos:R:3:spacegroup_kinds:I:1:momenta:R:3:forces:R:3 spacegroup="P 1" unit_cell=conventional energy=-2140.0914913008874 free_energy=-2140.0914913008874 stress="-0.0009272489254588065 -9.400095762185076e-07 6.869184262132792e-06 -9.400095762185076e-07 -0.0009021047037729682 9.42046816229144e-06 6.869184262132792e-06 9.42046816229144e-06 -0.0018988135186300931" pbc="T T T"
Al      14.71092529      21.62740220       0.01460903        0       0.07554157       1.07855161      -0.41057601       0.22961975       0.00379538       0.00846414
Al       6.92240957      21.62761853       0.01625512        1       1.65189197       0.77330098       0.62493756      -0.23354593      -0.00553534       0.00341653
Al      16.23323439      20.12094323       7.72930908        2       0.18793313      -0.05488162       0.30584005      -0.00305144       0.23587476       0.00610626
Al       5.39842144      20.12159230       7.73085229        3      -0.46670410       0.27784539       0.00819707      -0.00944119       0.23316025       0.01696773
Al      16.22120349       1.51494460       2.58559273        4       0.37463865       0.33810790       0.06984907      -0.00447281      -0.23079460       0.01034179
Al       5.41624990       1.51516093       2.58744457        5       0.75559102      -0.25985895       0.40119846       0.01525163      -0.23637171       0.00305969
Al       3.89304290       0.00921905       5.16007436        6      -1.03776159       0.66458102      -0.71005342       0.22743817       0.00631847       0.00362874
Al      17.74364468       0.00792090       5.15729658        7       0.25263055      -0.23209409      -2.03364141      -0.22699415       0.00080844       0.00801340
Al       5.40087772      12.33310520       7.72375354        8      -0.18272647       0.71532842       0.62682902      -0.00413031      -0.22444907       0.01305453
Al       3.89381627      10.81318399       5.15132951        9      -0.34249402      -0.81407566       0.74189246       0.22987666      -0.00475906       0.00732162
Al       5.41444209       9.30624468       2.57859685       10       0.55548660       0.20114761      -0.35013739      -0.00068885       0.22149864       0.01853057
Al      16.23569056      12.33418690       7.73116093       11       1.66433407       0.22953092       2.08411881      -0.00479726      -0.23509654       0.02282161
Al      14.70993489      10.82689923       0.01512343       12      -0.25933734      -1.03268814       0.58005891       0.23326508       0.00396750       0.01641253
Al      16.21615080       9.30256632       2.58795898       13      -0.08957361       0.03865113       0.40157101      -0.00185860       0.23159662       0.00590369
Al       6.92293393      10.82495208       0.00668723       14      -0.98312898      -0.14689403       1.57097373      -0.22923842       0.00183152       0.01674774
Al      17.74117314      10.80864019       5.15955995       15       0.58029912      -0.01524653      -0.61377398      -0.21959132       0.00062272       0.01771248
H       15.58526682      10.76102569       6.02632817       16       0.57201057       0.50114234       0.00684447       0.06714768      -0.00230601       0.00842872
H       16.17083879      11.46079194       3.45555023       17      -0.38629130      -0.18235499       0.00546088      -0.00732651      -0.06427121       0.00160959
H        5.34745561       0.64397712       8.60667399       18      -0.08353873       0.55334126      -0.20588024      -0.00636815      -0.07172509       0.00120762
H        6.05690245      10.78396078       6.00173973       19      -0.22321285       0.32311700      -0.08133198      -0.07806074      -0.00872288       0.01039192
H        5.43447245      11.47420716       3.41954206       20       0.24432831      -0.06062545       0.15890623       0.00944713      -0.08454565       0.01253403
H       16.27756922      10.17463469       8.59494561       21       0.00716831       0.09326607       0.16253268       0.00398289       0.08496941       0.01233612
H       16.86976577      10.86431622       0.87695338       22      -0.46594630      -0.12218683      -0.06864618      -0.07147359       0.01088505       0.00666478
H        5.36334820      10.17095676       8.57807321       23      -0.00503695       0.00350345      -0.03596470      -0.00280654       0.07163175       0.00538527
H       16.18521667      20.99015135       3.44227865       24       0.30178714      -0.28707797       0.01237855      -0.00977238       0.07361119       0.00489437
H       16.87444302      21.60618449       0.86501924       25       0.44825054       0.06796746      -0.15142906      -0.08032473      -0.01968663       0.00712118
H       16.26535458       0.64592476       8.58486332       26       0.09503126      -0.45398345      -0.34882429       0.01364084      -0.07033093       0.00260651
H       15.58210090       0.03841432       6.01285082       27      -0.55572271      -0.16664281       0.30916228       0.07178547       0.01389243       0.00306619
H        4.76585778      21.55663645       0.89372290       28       0.17162653      -0.28712255       0.41008088       0.05751480       0.01326244      -0.00057202
H        6.05049030       0.07065236       6.03270676       29      -0.03651314      -0.30709851      -0.35745669      -0.07209744      -0.00741445       0.00553072
H        5.46919184      20.99253102       3.46326627       30       0.03218430      -0.06030325       0.27703328       0.00596435       0.07439076       0.00099670
H        4.75965897      10.85566204       0.85174766       31       0.17491445      -0.61656124       0.14082034       0.07558511       0.00416694       0.01188600
H       12.96689340      19.82391220       5.41408631       32      -0.34774293       0.12584877      -0.25897848       0.04718479      -0.02602283      -0.04489240
H        8.65200908      19.82347941       5.41809865       33      -0.21182654      -0.11616601       0.01431695      -0.02908619      -0.02262122      -0.04076727
H       10.81016248      21.24061307       8.85739376       34      -0.10356089       0.34386193       0.15888826       0.01142893       0.04797244       0.01758900
H       10.80905610      19.43793695       4.21151615       35       0.13533204       0.20627916      -0.16974185       0.00695334      -0.03163721      -0.10213207
H       12.98275688       1.84118572       4.84988965       36       0.16606154       0.17352369      -0.13216204       0.03873340       0.03008777       0.03701270
H        8.66419350       1.84551300       4.85112422       37      -0.18302405      -0.27645229      -0.23366408      -0.04594329       0.03179208       0.03759849
H       10.82157381       0.42729752       1.41131470       38      -0.04101709      -0.35180617      -0.51502912      -0.00223817      -0.04729201      -0.02729165
H       10.82397988       2.22045354       6.05976433       39       0.26433632      -0.05626539      -0.04950893      -0.00372435       0.03354461       0.10519271
H        2.15336339      19.80220050       9.99916155       40       0.18896342      -0.44766885       0.23985778       0.04890128      -0.03454016       0.03869166
H       19.47197126      19.79765688       9.99669242       41      -0.22112509      -0.07805941       0.07001109      -0.03988486      -0.02699304       0.03821492
H       21.63066085      21.21555244       6.55914628       42       0.10278473      -0.32576110      -0.09237002       0.00561664       0.04733833      -0.03580517
H       21.63126725      19.42565814       0.92016319       43       0.01046224       0.27519245       0.13564637       0.00163669      -0.03083395       0.10394500
H        2.16453251       1.82157155       0.27592550       44       0.10191631       0.09378903      -0.24688194       0.03192527       0.02173710      -0.04400950
H       19.48681759       1.82395169       0.26800370       45       0.19310418      -0.06384641      -0.08472120      -0.04300327       0.02286500      -0.04056970
H        0.00195097       0.38420330       3.70400664       46      -0.43346151      -0.12297186      -0.14470890      -0.00558847      -0.04710288       0.02648191
H        0.00912836       2.21325941       9.35729011       47       0.03959719      -0.09927634       0.16897552      -0.00671578       0.02831917      -0.09710264
H        3.58994730      18.39334959       2.84834952       48       0.08563328       0.48926162      -0.14431332      -0.02657371       0.03637845      -0.05023945
H        3.58691049      14.07838457       2.83981044       49      -0.33434369      -0.13476575       0.57253300      -0.02361242      -0.04358033      -0.04249724
H        5.01708020      16.23050978       6.27982572       50       0.17395279      -0.13631877      -0.06793742       0.04859492      -0.00470226       0.02350539
H        3.20034619      16.23794230       1.63981229       51       0.27980059       0.01693676       0.05877759      -0.02854394      -0.00536775      -0.09729934
H        3.56955439       3.25530447       7.42395976       52      -0.00241480      -0.04777032       0.01566988      -0.03133813      -0.04751270       0.03843528
H        3.56869578       7.57394787       7.42118199       53      -0.13841389      -0.10914889      -0.10541040      -0.02852055       0.03993405       0.03683629
H        4.98619544       5.41251893       3.98373872       54       0.41606093       0.12886686       0.05317084       0.04547896      -0.00039135      -0.03131962
H        3.19384810       5.41547178       8.63280563       55      -0.39556884      -0.19634879      -0.47822163      -0.03092252      -0.00501540       0.09693822
H       14.38969948      18.38773342       2.28014052       56       0.08850393      -0.03849627       0.16949130      -0.03231893       0.04648630       0.03937718
H       14.38817788      14.06973913       2.28168373       57      -0.11215896       0.06121244      -0.12506455      -0.03111343      -0.04700871       0.03655773
H       15.79892918      16.22743396       9.12735220       58       0.10096629       0.14923501       0.00296934       0.04916512      -0.00068642      -0.03157038
H       14.01376992      16.22925734       3.49083824       59      -0.22205467      -0.14789020      -0.08091400      -0.03332928      -0.00149094       0.10588880
H       14.40632409       3.25356433       7.98579017       60       0.11657143       0.15527186       0.02132599      -0.02224599      -0.03680905      -0.03888394
H       14.40308607       7.56852939       7.99144860       61       0.07461744      -0.50467826      -0.07751861      -0.02450177       0.03797912      -0.04678558
H       15.84108463       5.40910385       1.13312583       62      -0.32189942      -0.14097620      -0.37238376       0.05056392      -0.00185581       0.02905818
H       14.01391791       5.41204024       6.78568914       63      -0.25617524       0.02611439       0.47406070      -0.02898318      -0.00200208      -0.09800492
H        7.24186089      18.38405524       2.27849443       64      -0.00278123      -0.07589442       0.09666288       0.03208097       0.04170157       0.03994828
H        7.24769595      14.06562827       2.27715699       65       0.52702243       0.10760960      -0.15367966       0.03040853      -0.04837577       0.03948866
H        5.82938733      16.22332304       9.12652915       66       0.17712143       0.17912640      -0.09682296      -0.04400194       0.00605121      -0.02448346
H        7.61912124      16.22536281       3.48878063       67      -0.16368224       0.19575326      -0.14120746       0.03388479      -0.00253917       0.10576358
H        7.23533479       3.24382778       7.99402061       68      -0.07405173       0.24621609       0.22658190       0.01944712      -0.02727650      -0.04566438
H        7.22841808       7.55944222       7.98249799       69       0.05467959      -0.08831201      -0.15450008       0.02650344       0.04111626      -0.04075328
H        5.79408136       5.40737294       1.13271430       70      -0.17157431       0.01855270      -0.09309978      -0.04474701       0.00301653       0.01934554
H        7.62251615       5.39927472       6.78517473       71      -0.09675402       0.26324713      -0.05143552       0.02943853       0.00734725      -0.09876379
H       18.04704073      18.37971871       2.84166229       72      -0.09712055      -0.04919776       0.41675213       0.02525588       0.03763927      -0.04134017
H       18.05179373      14.06367159       2.85030425       73      -0.04074059       0.07052469       0.14762918       0.01923528      -0.02373052      -0.04511678
H       16.61265668      16.22553342       6.27807675       74       0.15672130       0.10529656      -0.04972303      -0.04685448       0.00477149       0.02525807
H       18.44048957      16.22020033       1.64300158       75      -0.10741906      -0.02987939      -0.16956807       0.03074716       0.00669278      -0.10270357
H       18.07121946       3.24859716       7.42354824       76       0.25335443       0.13359167      -0.18198847       0.02713121      -0.04817336       0.03875394
H       18.06148974       7.56680776       7.42519432       77      -0.05142096      -0.46886733       0.01069693       0.03208044       0.04735862       0.04079901
H       16.64560208       5.40472974       3.98713378       78      -0.06766969      -0.20137559      -0.06723134      -0.04353575       0.00797517      -0.03045595
H       18.44069738       5.40854806       8.63548053       79       0.09302041       0.44331484       0.05409409       0.03187271      -0.00122233       0.09930033
H        2.14896774       9.00185718       0.26728354       80      -0.09921835       0.07134718      -0.16594005       0.04013214      -0.02346513      -0.04349131
H       19.47082021       9.00488618       0.27366213       81       0.00541816      -0.05554736      -0.04459037      -0.03009873      -0.02419903      -0.04264982
H       21.63351654      10.42742904       3.70863626       82       0.48014984      -0.21624290       0.14775449       0.00412941       0.04647834       0.01867071
H       21.62673805       8.61722771       9.35368930       83      -0.04440005      -0.05112421       0.21599327       0.00503551      -0.03057241      -0.10016445
H        2.16243202      12.65393709       9.99422329       84       0.04811234      -0.32484933       0.29022577       0.04556345       0.03159846       0.03886071
H       19.48147006      12.66670266       9.99185704       85      -0.03313513       0.29237432      -0.26205895      -0.04922884       0.03032919       0.04142411
H        0.00168160      11.24069799       6.55554546       86       0.23094198       0.04521625      -0.34428581      -0.00441150      -0.04607387      -0.03286677
H        0.00370201      13.03726826       0.91512205       87      -0.03708706      -0.13390339      -0.23201366      -0.00167506       0.03216809       0.09882891
H       12.97109370       8.97625092       4.85163862       88      -0.14406404       0.37957259       0.09510123       0.04010978      -0.02905888       0.03653216
H        8.65253048       8.97906371       4.84896372       89      -0.14819304      -0.34492394      -0.09283224      -0.04480215      -0.03062538       0.03907847
H       10.81381612      10.39998834       1.41378383       90       0.15346755       0.27349682       0.14494657       0.00388391       0.04334346      -0.02845027
H       10.81091420       8.60148710       6.06007297       91      -0.22565037       0.24984429       0.00150945       0.00074931      -0.03396425       0.10667102
H       12.98007925      12.63497208       5.41593816       92      -0.15497612      -0.16375972       0.11096909       0.03290157       0.02195475      -0.04427364
H        8.66497747      12.64103037       5.41172006       93      -0.43565723      -0.14957197       0.88232283      -0.03741201       0.02173968      -0.04173468
H       10.81901187      11.20084927       8.84617979       94      -0.04391067       0.00076395       0.02185463      -0.00717353      -0.04777313       0.02806023
H       10.82385721      13.02682870       4.20987006       95      -0.05092672      -0.42307536      -0.00071842      -0.00295919       0.02880328      -0.09537349
C       12.01613135      20.04351471       5.89340656       96       0.19099077       0.35298759      -0.52273106       0.03299306       0.04790359       0.01584586
C       12.02343300      20.55757625       7.20132636       97      -0.30183473      -0.78636472       0.39558634      -0.15866140      -0.00371915      -0.03893127
C       13.32078303      20.73520011       7.91603719       98      -1.44559440       1.17170439      -0.50224249       0.01517034      -0.04422330       0.01554838
C       10.81323421      20.84295099       7.84525541       99       0.51508560      -0.80532419       1.16496811      -0.00399414      -0.00506214      -0.05613154
C       10.81009915      19.81158238       5.23270799      100      -0.30734131       0.87606946       1.31638560       0.00452933       0.06164360       0.09544170
C        9.60488524      20.04286560       5.89412672      101      -0.51973127      -0.31517412       0.33979025      -0.02190501       0.05281848       0.01810706
C        9.60309917      20.55757625       7.20132636      102       0.35259017       0.48055725      -0.38611363       0.15704759       0.00014560      -0.02830398
C        8.30809984      20.73541645       7.91727176      103      -0.29737467       0.16402391      -0.42233259      -0.01811640      -0.04505042       0.01688845
C       12.02901493       1.62396317       4.37417022      104      -0.38039438       0.43585483       0.67622764       0.01033154      -0.06271388      -0.02675053
C       12.03101673       1.11336348       3.06532450      105       0.51905363      -0.45802028      -1.83891091      -0.15816311      -0.00700766       0.02306341
C       13.32406840       0.93747058       2.34814453      106       0.35656239       1.33974420       0.42963723       0.03238194       0.02999867       0.01444447
C       10.82109827       0.82669053       2.42263001      107       0.32333020       1.42698795       0.20266361      -0.00183983       0.00816237       0.05619690
C       10.82315230       1.85265000       5.03641200      108      -1.18362417      -0.34110877       1.09549179       0.00159692      -0.04621687      -0.08963255
C        9.61668649       1.62634318       4.37406734      109       0.94345634      -1.00677261      -0.81023685      -0.01949046      -0.06279886      -0.02016154
C        9.61154812       1.11509440       3.06542738      110       0.28441435      -0.68776472      -0.02530343       0.15550625      -0.00804084       0.02140978
C        8.31701075       0.93855239       2.34917334      111      -0.46276533      -0.56942055      -0.15196929      -0.03980151       0.03271267       0.01189342
C        1.20063869      20.01922232       9.52189891      112      -1.67770892       0.57762254      -0.08223052       0.01084264       0.06552733      -0.02134926
C        1.20486900      20.52791768       8.21233303      113      -0.35202610       1.53707983      -0.26146633      -0.14638963       0.00578788       0.02465321
C        2.49916706      20.70058864       7.49453578      114      -1.30571228      -0.03804132      -0.27921842       0.03201071      -0.03381755       0.01333469
C       21.63225149      20.81569353       7.57005007      115      -0.25140231      -0.12986096      -0.86761347      -0.00091118      -0.00487703       0.05508282
C       21.63158099      19.79289377      10.18465509      116       1.66839555       1.28109747      -0.41966789      -0.00523874       0.03947243      -0.09195418
C       20.42526439      20.01814050       9.52159027      117       0.09543576       0.24091645      -2.37670197      -0.00739432       0.05860696      -0.02139764
C       20.42257062      20.52813404       8.21264167      118      -0.98573162       0.64318985      -0.74863817       0.15035851       0.00708048       0.01706079
C       19.12971227      20.70058866       7.49330122      119      -0.38164496       0.26705340       0.69845748      -0.03007386      -0.03472052       0.01401630
C        1.21145609       1.59870793       0.74969020      120       1.14718605      -0.62812722      -0.13774697       0.01970652      -0.05339336       0.02279896
C        1.21285326       1.07724712       2.05452358      121       0.83435304      -0.82846977       0.29386170      -0.16346542       0.00782303      -0.04025866
C        2.50722690       0.90003250       2.77211507      122      -0.00382931      -0.40229543       0.67183656       0.01695530       0.04134867       0.01939856
C        0.00165791       0.78860585       2.69474894      123      -0.12042525       0.90967711       0.32794016       0.00092860       0.00028846      -0.04597969
C        0.00665267       1.83369106       0.08837435      124       0.15438522       1.09128201       0.61539323      -0.00003071      -0.05841789       0.09540598
C       20.43694691       1.59978980       0.74691243      125      -0.77320466      -0.29622648       0.28924361      -0.03260403      -0.04894583       0.01898779
C       20.42904005       1.07876171       2.05226021      126       0.42972325       0.18415823       0.02568387       0.15729823       0.00428225      -0.03823523
C       19.13236265       0.90089802       2.76841137      127       0.99660241       0.28613150       0.26811980      -0.01983607       0.03839980       0.02166856
C        3.81057960      17.44003808       3.32221711      128       0.77006765       0.00582163       0.00803295       0.05509764       0.02305116       0.01870766
C        4.32881098      17.44174757       4.62807929      129       0.47501768      -0.21473982       0.79562661      -0.00472332      -0.17181260      -0.03607417
C        4.50605508      18.73603062       5.34536214      130       0.16020615      -0.33535654      -0.62565576      -0.04794457       0.01564321       0.00772103
C        4.61591045      16.23074272       5.26923057      131      -0.26348248      -0.45928315      -0.79127756      -0.00501524      -0.01045754      -0.05239225
C        3.57728278      16.23554555       2.65997533      132       0.03926515       0.81234003      -1.23576151       0.05611278      -0.00294640       0.09194740
C        3.80963989      15.02865135       3.31892493      133      -0.68101008      -0.73819374      -0.22901173       0.04726132      -0.02493999       0.01629806
C        4.32743993      15.02105714       4.62530152      134       0.86824860       0.11611800      -0.60851308      -0.00200201       0.15858013      -0.03533445
C        4.50528572      13.72372150       5.33949795      135       0.22207094      -0.47416691       1.28442342      -0.04108489      -0.01879346       0.01582317
C        3.78815672       4.20775058       6.94669712      136       0.33412032       0.50608766       0.27986174       0.05990783      -0.00906667      -0.01602849
C        4.29834048       4.20257929       5.63764564      137       0.12219519      -0.22554100      -1.14874354       0.00313370       0.16124415       0.02035798
C        4.47183498       2.90786351       4.92077431      138      -0.16191789      -0.39156660      -0.68808901      -0.04218588      -0.04406452       0.02902347
C        4.58592438       5.41250235       4.99464251      139      -0.63133462      -0.12906846       0.31679597      -0.00416050      -0.00695972       0.06215257
C        3.56123061       5.41440675       7.60904178      140      -0.00147601      -0.38842838      -0.81045472       0.04716874       0.00170700      -0.09369629
C        3.78801431       6.62043556       6.94597696      141       0.14819651      -0.08381912       0.71292169       0.06378994       0.00442429      -0.03123916
C        4.29862972       6.62262068       5.63692547      142       0.18545900      -0.78205973      -0.71081461       0.00542207      -0.15096126       0.01823830
C        4.47238846       7.91584547       4.91779078      143       1.37955914       1.13337460       0.97411265      -0.04467723       0.03619993       0.02503501
C       14.60663787      17.43443749       1.80390669      144       0.51733935      -0.79586828      -0.94318850       0.06448214       0.01393564      -0.02383593
C       15.11530580      17.43748808       0.49434080      145      -0.53612564      -1.75060057       1.05380911       0.00409453      -0.15191975       0.02161938
C       15.28880058      18.73076045      10.06469643      146       0.26964206       1.32110598       0.51034910      -0.03525316       0.04063172       0.01805973
C       15.40147093      16.22763373      10.13928479      147      -0.13534725      -0.22413021       0.40634008      -0.00764852      -0.00548171       0.06174715
C       14.38007051      16.22862504       2.46697151      148      -1.09879417      -1.01889554       0.01584102       0.04443291       0.00420548      -0.08908747
C       14.60591469      15.02240161       1.80442109      149      -0.21383534      -0.57281814      -0.46397923       0.06230020      -0.01575809      -0.01953224
C       15.11458369      15.01831215       0.49495809      150       0.29909596      -1.40588136      -0.10893434       0.00689936       0.16221962       0.02009833
C       15.28867955      13.72450943      10.06603388      151      -0.10810424       1.17402191       0.86361088      -0.03964678      -0.04526365       0.01962513
C       14.62862060       4.20469658       8.46387585      152      -0.04825135      -0.48326814       0.24742591       0.04835701      -0.02811559       0.01319463
C       15.14923316       4.19904968       9.76912076      153       0.01033829       0.66699250      -0.67177498      -0.00284216       0.15373557      -0.03180771
C       15.32734279       2.90296459       0.19742768      154      -0.85425229      -1.25033495      -0.15656852      -0.04682321      -0.01957467       0.01254990
C       15.43775119       5.40933678       0.12355948      155      -0.45511292       0.89720066       1.18297753      -0.00664037       0.00493905      -0.05166042
C       14.39323438       5.41094169       7.80492625      156      -0.01250759      -0.66730214       0.18552680       0.06137943       0.00313777       0.10141013
C       14.62674743       6.61629969       8.46624210      157       0.07826269       0.25477479       0.71336597       0.05099684       0.02378776       0.01553211
C       15.14800768       6.62017286       9.77107548      158      -1.06427426       0.29640914       0.50766179      -0.00353892      -0.16883753      -0.03463428
C       15.32551557       7.91570650       0.19989681      159      -0.89027809      -0.16814451       0.93312459      -0.04381814       0.02183510       0.01329333
C        7.02497405      17.43054295       1.80236348      160       0.03697636       0.70608199       0.65849687      -0.05855125       0.02112662      -0.01965800
C        6.51647849      17.43445900       0.49290048      161       0.93229506      -1.30099947      -0.41998098      -0.00666120      -0.14906057       0.01876437
C        6.34377841      18.72881317      10.06449067      162       0.11955714       0.13115910      -1.17800030       0.03497166       0.04301179       0.01925131
C        6.22904222      16.22482101      10.13784447      163       0.55345678       0.51104637      -0.74949316       0.00800184      -0.00843129       0.05861558
C        7.25257089      16.22473051       2.46501678      164       1.35773399      -0.10089516      -0.03598478      -0.04614772      -0.00693298      -0.09678129
C        7.02771280      15.01850709       1.80154044      165      -0.02066833      -0.52701756       1.07277787      -0.06537802      -0.00403170      -0.02358981
C        6.51705460      15.01528308       0.49259183      166       0.39141530       0.15680637       0.51359301      -0.00385622       0.15900599       0.02312510
C        6.34409017      13.72191312      10.06212442      167      -0.24296818      -0.87882407       0.67884774       0.03993968      -0.03732266       0.01894215
C        7.00995784       4.19712377       8.46644786      168       0.27749996      -0.56403274      -1.33001466      -0.04996976      -0.02266327       0.02181820
C        6.48787455       4.19558782       9.77086972      169       1.13453949      -0.74863943      -1.08446957       0.00251427       0.16475072      -0.02877424
C        6.30940341       2.90101726       0.20010257      170       1.22104616       0.58330384      -0.87992991       0.05177914      -0.01669005       0.00966097
C        6.19824720       5.40695677       0.12314796      171      -0.01248573      -0.38069841      -0.07604381       0.00207845      -0.00043718      -0.05206967
C        7.24323290       5.40185438       7.80441185      172      -0.31149975      -0.67912658      -0.85781838      -0.05893725       0.00461420       0.09469991
C        7.00765178       6.60894335       8.46222976      173      -0.16836103      -0.52722279       0.87817138      -0.05236278       0.02250497       0.01366472
C        6.48751451       6.61649471       9.76778331      174       0.50049226      -0.07904557       0.35242081       0.00585352      -0.15984902      -0.03834323
C        6.30909066       7.91375931       0.19444414      175       0.03863542      -0.08457521      -1.14221301       0.04731551       0.02436406       0.00787106
C       17.82562536      17.42878713       3.32046814      176       1.17281847       0.10333329      -0.53361079      -0.04927270       0.03298965       0.01252097
C       17.30548815      17.43590576       4.62591880      177       1.56387555      -0.11363590      -0.39891047       0.00082594      -0.15922031      -0.03550908