304
Lattice="21.63717 0.0 0.0 -0.003217390455063572 21.636489760783718 0.0 0.00016878672533660936 -0.0001687616282665579 10.28804999723128" Properties=species:S:1:pos:R:3:spacegroup_kinds:I:1:momenta:R:3:forces:R:3 spacegroup="P 1" unit_cell=conventional energy=-2128.6248232586136 free_energy=-2128.6248232586136 stress="-0.0018704822004378932 -0.001285495701614616 0.0007164190003258356 -0.001285495701614616 -0.001911463969073114 -0.004182256844585578 0.0007164190003258356 -0.004182256844585578 -0.0036264778482182768" pbc="T T T"
Al      14.73682756      21.64884369      -0.00981230        0       0.96896150       0.78919550      -1.17521523      -0.61190843      -0.07190692       0.08301962
Al       6.96794628      21.63074238      -0.00514383        1       1.27835757      -0.10514266      -1.18218709      -1.12371607       0.36470536      -0.28348351
Al      16.14760141      20.08649691       7.68056879        2      -2.54329526      -0.32755680      -0.97547875       0.88191385       1.23437633      -0.23117472
Al       5.40091400      20.11593067       7.73063471        3       0.07627112       0.16121310       0.31209684      -0.13113862       0.03306434       0.95839284
Al      16.21015294       1.47761268       2.53581579        4      -0.52466679      -0.96048154      -0.82733712      -0.20782404       0.56878081       0.84870212
Al       5.43647404       1.51412468       2.67796689        5       0.04255594       0.25796062       2.25397304      -0.52716502       1.07577485      -1.57175212
Al       3.89910959      -0.02844436       5.14440126        6       0.02801347      -0.82251143      -0.15396808      -0.60061034       0.69124686       0.75979347
Al      17.72959535       0.00496345       5.11168493        7      -0.70415013      -0.07815110      -1.05614681       0.90555144      -0.35593123       0.70993615
Al       5.37233972      12.35422620       7.72770897        8      -0.54506263       0.92954807       0.47784743       0.31071258      -0.47315530       0.30503890
Al       3.88984453      10.83820661       5.17592929        9       0.00705272       0.44265563       0.98078648       0.24117350      -0.19762108       0.24575552
Al       5.47580688       9.31309491       2.58487791       10       1.93160904      -0.14022455      -0.00169858      -0.85298306      -0.09199929       0.03500245
Al      16.28676195      12.30374593       7.76114918       11       0.95723702      -1.04403411       0.88211179      -0.56366108       0.65465486      -0.72347720
Al      14.74164524      10.81578957      -0.00143778       12       1.24151787      -0.53113379      -0.87478871       0.24542139      -0.14140528       0.13053088
Al      16.22031984       9.29015649       2.61134735       13       0.38029820      -0.67478507       0.19064578       0.09945151      -0.55054899      -1.09297602
Al       6.90505975      10.84174004       0.06650095       14      -0.76526941       0.48871561       1.68226231      -0.28311057      -0.18802156      -0.81077777
Al      17.77411803      10.76470063       5.13746361       15       1.38667214      -1.25570392      -0.37710242      -1.06268979       1.40831641      -0.70897993
H       15.60722346      10.71566733       5.93579368       16       0.12844179       0.06166339      -0.03456993       0.18202008       0.20501849       0.20028407
H       15.97805257      11.30210402       3.30547420       17      -0.13724373      -0.08929232      -0.13018002       0.89086657      -0.94513972       1.24142320
H        5.31852500       0.61814299       8.59956930       18       0.01139315      -0.31421811       0.08183779      -0.31249874       1.57093099      -0.76393513
H        5.95841529      10.71661127       6.01910460       19      -0.34438613       0.02974321       0.16913281       4.01395386      -0.96777149      -2.31906919
H        5.22135015      11.45532581       3.44177450       20      -0.07352329      -0.18483370       0.06047235       0.34676716       0.66229258      -0.64425277
H       16.11429817      10.21561878       8.39501581       21      -0.10824257      -0.07614209      -0.23859626       0.04964948       0.36631270       0.54857846
H       17.02296948      10.78334295       1.13292286       22       0.16162081       0.16393047      -0.04446050      -1.31896374       0.11386723      -0.12960986
H        5.08531663      10.23231455       8.51662530       23      -0.09947900       0.18424271       0.10679930       0.31441206      -0.33021352       0.12944205
H       16.08295031      21.03219450       3.44034842       24       0.03482964       0.15508608       0.22573882      -0.83532165      -2.05993685      -0.79049176
H       16.78954658      21.08461008       1.20020319       25      -0.06281977      -0.47114723       0.23546839      -1.22430238       1.30746349       0.14742210
H       16.22839272       0.68524766       8.51938459       26       0.04563833       0.03497071       0.08157919      -0.12011489      -0.90537831       0.63170781
H       15.69624375       0.35842467       5.95779540       27      -0.04016570       0.24890419      -0.01200491      -0.09659123      -0.46053457       0.39986451
H        4.71381536      21.55392754       1.15963063       28      -0.15935462      -0.09999376       0.06769085       2.30011512       0.14063820       0.03895918
H        5.93002201      -0.40860710       5.82289453       29       0.00270193      -0.25416804      -0.09456615      -0.54474526       0.69426386       1.00467409
H        5.73797194      21.26481253       3.29326137       30       0.05108964       0.14085978      -0.04275985      -0.20923263      -1.24771283       0.07083097
H        4.75181310      10.85578959       0.86020594       31       0.10309259       0.09759096      -0.03683994       0.47599927       0.03125827       0.28103175
H       13.01956912      19.71085924       5.64373403       32      -0.14765007      -0.17275501      -0.20935006      -0.13111938       0.01738384      -0.88850854
H        8.60268839      19.86456088       5.37661266       33      -0.11228499      -0.08757975      -0.13886357       0.32308758      -0.11006812       0.31199179
H       10.68940728      21.29453268       8.88901616       34       0.20811029      -0.08095766      -0.23463219       0.70106053      -0.21133154      -0.64640952
H       10.67897027      19.44456299       4.28504741       35       0.48662407       0.12951144       0.15151350       0.64524245       0.04178357      -0.43696346
H       13.03699112       1.86260103       4.64757575       36       0.36969634       0.14852549       0.16842770       1.55626786       0.50331405       1.49659761
H        8.74872718       1.86395098       4.83207526       37       0.09218174      -0.07729711      -0.08453735      -0.76106662       0.09969743       0.26486000
H       10.86133432       0.26018237       1.55974078       38       0.07437351      -0.09740333       0.23484500      -0.00682720      -0.16073005      -0.73088435
H       10.68620255       2.21254005       6.03413210       39       0.05604806      -0.07060013      -0.26856796       0.41824330       0.35234380       0.60764811
H        2.10823485      19.73785071       9.92648840       40       0.40082559      -0.11781655       0.14310965       1.16471636      -0.18948023       0.63524718
H       19.58005709      19.84071763      10.15128877       41      -0.13467702      -0.04438956      -0.16872815      -0.97475248      -0.27541901      -0.38155955
H       21.85674906      21.40512835       6.60550571       42      -0.29735493      -0.15867368       0.18718809      -1.07397330      -0.48969860      -0.12434825
H       21.55729510      19.55789494       0.96402262       43       0.05534662       0.10055818      -0.10285073       0.33004326      -0.22487244      -0.12743606
H        2.11948186       1.83376482       0.27093078       44       0.09040761       0.12440156      -0.03990073       0.59038412       0.05215142      -0.20795635
H       19.54677661       2.10903887       0.49403313       45      -0.07181782       0.20196288      -0.29463169      -0.76203531      -0.02533930      -0.89044228
H        0.09701905       0.38273233       3.68248287       46      -0.12146700       0.14173042      -0.16345899      -0.06347276      -0.23020734       0.79830396
H        0.16034895       2.13100892       9.31104968       47      -0.17078982      -0.07619933       0.14601217      -0.63703861       0.22026005       0.10279135
H        3.71663782      18.47781243       2.86574848       48       0.08485607      -0.15458289      -0.06168132       0.05516777      -0.81888998       0.00928063
H        3.49464296      14.17188250       2.83157678       49      -0.00056418       0.05119642       0.34023173       0.15569227      -0.30111776       0.43490694
H        4.94919692      16.18028880       6.36205897       50       0.07395643       0.24702100      -0.04408411       0.35432623       0.40040917       0.05776011
H        3.15629712      16.16947666       1.68848486       51      -0.10605074       0.07926021       0.02314920       0.20936671       0.26686554       0.53130544
H        3.29967143       3.35057777       7.36954042       52      -0.07279797      -0.27096791      -0.33809383       0.20160205      -1.19635186      -0.01858833
H        3.36344920       7.49170091       7.32558765       53       0.01065044      -0.37667100      -0.29875332       0.70878975      -0.79085901      -0.36430290
H        4.95639840       5.43986739       3.90600743       54      -0.06655020      -0.10847722       0.37444579       0.12994427      -0.27927361       0.02718288
H        2.99131782       5.40200818       8.54513331       55      -0.04863204       0.03958973      -0.18898702       0.15489179      -0.06226249       0.23116762
H       14.32598046      18.31840078       2.32191710       56      -0.35240362       0.18855211       0.34699344      -0.48806486       1.17974573       0.82523772
H       14.70421842      13.99559171       2.21829132       57       0.03851836      -0.05467307       0.20551085      -0.81799836      -0.84048737       0.87562830
H       15.68492325      16.29558933       9.17664495       58      -0.16313115      -0.04690707       0.17190514       0.12736567      -0.08525608       0.09278697
H       14.03060226      15.91057454       3.55303186       59      -0.05106146       0.14146180       0.01391037       0.04702464       1.16900235      -0.80543501
H       14.31448591       3.23761207       8.03433693       60      -0.05679483       0.19336642      -0.04637866       0.21253436       0.28867986      -0.07466142
H       14.52154416       7.58644130       7.95168220       61      -0.09841991      -0.01200853       0.00511428      -0.67675717       0.12836727       0.16148830
H       15.76142627       5.44233376       1.15352558       62      -0.07376749      -0.21938306       0.02351037       0.39616755      -0.30315792       0.22137046
H       14.02840460       5.44960244       6.77140088       63       0.19793153      -0.01173599      -0.13298269      -0.00359632      -0.20651614      -0.40904669
H        7.10826676      18.36803480       2.39339802       64       0.04158763      -0.04977452       0.13091234       0.38939639       0.19947893      -0.02452489
H        6.91957696      14.13392129       2.27952804       65      -0.17756444       0.08826020       0.07966528       0.65070369      -0.74828510       0.43633002
H        5.71081020      16.59757009       9.18706822       66      -0.08464648       0.05927830      -0.01637092      -0.25927167      -0.73195459      -0.57296896
H        7.49499593      16.28541793       3.52099175       67      -0.05847829      -0.14196064       0.02189834       0.49437361      -0.33798422       0.38679063
H        7.07385263       3.22080971       8.01509707       68      -0.19786991       0.18657553       0.01992162       0.11738028       0.21127062      -0.17958483
H        7.28258727       7.54436252       7.91773635       69       0.07476427       0.26970665      -0.20526207       0.22160020       0.70060553      -0.23386100
H        5.86927831       5.49228316       1.15031269       70       0.10600180       0.14595609       0.10356176       0.12682444      -0.01933595      -0.24554774
H        7.78292494       5.38891244       6.89807868       71       0.11329734      -0.19529905      -0.22934251       0.07024757      -0.32027128      -0.88926849
H       18.02597147      18.36508519       2.86692406       72      -0.09987149      -0.09944494       0.29818371      -0.25149640      -0.88071052       0.49595538
H       18.00695373      13.95413850       2.96874772       73       0.09732879      -0.31535090      -0.06727330       0.14497522      -0.35476328      -0.73850144
H       16.47772574      16.15225551       6.22320611       74      -0.10318985       0.10010131       0.17306348       0.31431059       0.14236147       0.12965286
H       18.62182538      16.25262887       1.63021356       75       0.02350341       0.01328269       0.12684925      -0.47131344      -0.06019401       0.61003582
H       18.18947949       3.33061103       7.56795485       76       0.12853048      -0.24855845      -0.07755395       0.03922809      -1.28859004      -0.13182361
H       18.03122790       7.54826210       7.41006532       77      -0.01071934      -0.07500683       0.15440545      -0.02436624      -0.20637677       0.17097599
H       16.91423762       5.39971602       3.90142934       78       0.03835628      -0.17315289      -0.12085917      -0.46777374      -0.20561408       0.23061392
H       18.36644713       5.29702149       8.63603246       79      -0.03823506       0.12729323      -0.20541120       0.28936459       0.52496265       0.33686237
H        2.20487479       9.19214031       0.26921722       80       0.27173939       0.00438932       0.07669169       0.58204381      -0.39295970      -0.14191306
H       19.44445301       9.12352439       0.29521581       81       0.32115883      -0.01761148      -0.11417884       0.53863928      -0.25192412      -0.27655794
H       21.39202496      10.07645232       3.77840017       82       0.05112142      -0.22534394       0.21644421       0.84786932       0.35913179       0.52664774
H       21.67124635       8.45603723       9.45159525       83      -0.00926633      -0.15253321      -0.02126541       0.10551176       0.14519642      -0.40743569
H        2.12395595      12.76029148       9.88984009       84      -0.03018782       0.08571152       0.06299585       0.11811446      -0.34628507       0.05474939
H       19.45420347      12.75801636       9.90853015       85       0.02464614       0.06281199       0.28450321      -0.47906535      -0.02934394       0.82184036
H        0.09550254      11.32559422       6.50847762       86      -0.23646314       0.09365028      -0.11303048      -0.71581740      -0.14750486      -0.66932317
H        0.01906708      13.01525029       0.91095852       87       0.00586381      -0.00790399      -0.09613260       0.20435586       0.06870954      -0.26261204
H       12.99038755       8.75031506       4.76517672       88      -0.20885173      -0.15295367      -0.42678034      -0.00976110       0.26091793      -0.28191980
H        8.67032110       8.94866541       4.79450475       89      -0.08157322      -0.05596475       0.10659316       0.03600543       0.01691190       0.40746116
H       10.77054742      10.28214467       1.31752193       90      -0.12186561      -0.20145775       0.00977311      -0.07432196       0.15475980       0.01193115
H       10.93849218       8.35586460       5.90826970       91      -0.14991786       0.02929860      -0.01144074      -0.31632724       0.22331102       0.53390865
H       12.92500941      12.62580545       5.37785469       92       0.09511900      -0.01540541       0.12622495       0.67002080       0.06544091       0.04438144
H        8.67333943      12.53990055       5.27708905       93      -0.00122552      -0.20041429       0.10457482       0.34852912      -0.21262933       0.62206856
H       10.88622183      11.39675498       8.91144936       94       0.05390282       0.18587362       0.10344080      -0.56971548      -0.14619791       0.05279456
H       10.80921064      13.00700819       4.24113104       95       0.00252350      -0.05042449       0.13760400       0.04174051      -0.18633354       0.26833381
C       12.02432203      20.02913326       5.93173704       96       0.75066625      -0.45494271       0.65198155      -1.15263982      -0.89088293      -0.32413203
C       12.00222653      20.44799508       7.25156897       97      -0.88915992      -0.84891073       0.06625235       0.12548441       1.40331134       0.02693945
C       13.28546254      20.76850846       7.83552525       98       0.49008679       0.18278059       0.14236505       0.92108503      -0.51337704       1.92222747
C       10.85917597      20.86648968       7.88054860       99      -0.62890251       0.10175773      -0.19168776      -3.46846748      -0.85001882      -0.46237910
C       10.79346811      19.85203651       5.28332260      100      -1.42941057      -0.00047697      -0.32198772      -0.21376680      -0.71745609      -0.60864763
C        9.54669172      20.01531107       5.91815733      101       0.05965312      -0.35731613      -0.13351665       1.20459547       0.33784025      -0.51688060
C        9.60512855      20.49840588       7.19973656      102       0.85475753      -0.02380201       0.71314815       0.88961440       1.20426583       1.94358751
C        8.33552854      20.72496503       7.91815792      103      -0.49052648      -0.84905394      -0.02452854      -0.31275657      -0.09440225       0.07317741
C       12.06007017       1.56598730       4.44297432      104       0.69119649      -0.65959696       0.52156560      -1.26814275       0.22479253      -1.92937973
C       12.01775271       1.10222211       3.10554270      105      -0.26174103      -0.28553001       0.06622933      -0.31272783      -0.39589301       0.54045068
C       13.25746897       0.91537401       2.34920506      106      -0.09152492       0.51069915       0.54282939       1.92592797       0.81721264       0.31714221
C       10.82951844       0.79622737       2.48636175      107       0.03312378      -0.22886914       0.45243975      -0.18373221      -0.39145665      -0.96269799
C       10.84356256       1.88043730       5.02747915      108      -0.35199512       0.07318822      -0.11975571      -0.38790650      -0.79596284      -0.28609490
C        9.65721370       1.62025044       4.32208484      109      -0.12233935       0.27906022      -0.37489757      -0.00179529       0.78864012       0.56883853
C        9.61048244       1.18721648       3.00872733      110       0.19441198       0.38818137      -0.32393551      -0.04180211      -0.77298409       0.47670744
C        8.31340697       0.92972831       2.31614312      111       0.43493667      -0.12126237      -1.10323770       0.31183313       0.65495023      -0.28718174
C        1.17683421      20.04101235       9.53656044      112      -0.07067822       1.22840297      -0.84591168      -0.04048438       1.04292753      -1.90674329
C        1.20380748      20.68085741       8.20201263      113      -0.28604880       0.74351946       1.55110869       0.06731178      -2.39569736       3.07232665
C        2.52084450      20.75690788       7.54403987      114       0.89767649       1.09328426       0.03360468       0.02947489       0.19843322      -1.10340982
C       21.65517649      20.83963611       7.53081188      115      -0.07636039       0.94078482      -0.41570366      -1.13584467       1.30105416       0.96576288
C       21.64110694      19.80758882      10.19065244      116      -0.86050777       0.30676757       0.08563292      -0.96784988       0.13315759      -0.47133898
C       20.41603752      19.96259624       9.48486905      117       0.40663781      -0.34081573      -0.21939299       1.03948569       1.21732215       0.66280437
C       20.37041773      20.60726569       8.24188857      118       1.07182302       0.81497219       0.33042341       2.86178677      -0.94987078      -1.21130568
C       19.13272395      20.67895406       7.47598087      119      -0.62927922       0.74599292      -0.91715568       0.21210796       1.52007970      -0.20504595
C        1.18297382       1.58016151       0.72731246      120      -0.04029096      -0.77318902      -0.02891084       1.30876365      -0.74724640       0.21179233
C        1.19135312       0.92399160       1.95571776      121       1.23189984      -1.31604483      -1.30134179       1.40370009       0.91604755       1.79821577
C        2.48401805       0.88562534       2.79090254      122      -0.77748875      -0.58582877      -0.75462269      -0.41519011      -0.58984381      -1.67051983
C        0.05252610       0.79744777       2.70274176      123      -0.55666354      -0.38505034       0.42851540      -2.19305009      -0.41658886      -1.25203331
C        0.03242913       1.82088449       0.06406877      124       0.61076564      -0.03691672      -1.41147425      -0.82714594       0.02499999      -0.90961287
C       20.46836026       1.62415504       0.73626870      125      -0.63697146       0.37447637       0.67878556      -0.22736277       0.17981191       1.61266539
C       20.45153125       1.09878351       2.06255335      126       0.05623747       0.25799748      -0.18267283      -0.00188438       0.17281354       0.25156369
C       19.10638862       0.95676140       2.83780880      127      -0.09031832       0.85099603       0.51927597       1.24633705       0.38744071      -1.57057280
C        3.88441109      17.46127758       3.27881249      128       1.02454908       0.92357109       0.03820456       0.04536540       0.75716435       0.94332265
C        4.32775731      17.38667906       4.60461486      129       0.38422912       0.65802135       0.89592112       0.50716141       2.65948113       1.36546968
C        4.43812866      18.76108455       5.33868780      130      -0.29096755      -1.18755020       0.17109564       0.33173033      -1.92568728      -0.63792454
C        4.68461417      16.24228403       5.31518243      131       0.42412052      -0.14675244      -0.29222788      -0.78467119      -0.08533941      -0.89941248
C        3.57264148      16.25726646       2.71636575      132      -0.24851119      -0.60313469       0.17594717      -0.54947485      -0.62333966      -2.02790766
C        3.79417590      15.06157117       3.38389739      133      -0.08228932       0.35866424       0.42032298       0.15132217       0.15371041      -0.38444036
C        4.40316699      15.06069360       4.64392311      134       0.48770166       0.44242220       0.33071052      -0.76575138      -1.24333090      -0.31420773
C        4.46442462      13.75514918       5.34415664      135      -0.35646155       0.12102649       0.42752720       0.78407319      -0.09598555       0.61061568
C        3.73573957       4.22073049       6.93498601      136      -1.28671356      -0.21066912       0.34304718       0.44252088      -1.44724591      -1.39024945
C        4.33445919       4.23712315       5.64057370      137       0.93535643       0.22826739      -0.90422320      -0.17348176      -0.37283797      -0.00920857
C        4.48421969       2.96943402       4.93373094      138      -0.82710721      -0.08450682       0.57313394      -1.31852317      -1.68511892       0.69905618
C        4.60003310       5.40317090       4.93030645      139      -0.13566066       0.81114098      -0.41647265      -0.10477554       0.78933952       1.05965650
C        3.52060263       5.35129689       7.59878524      140      -0.78083894       0.48768536      -0.36258075      -0.35940173       2.56255889       0.11513845
C        3.77532721       6.53341986       6.89052038      141      -0.52580228      -0.61995044       0.74096442      -0.92816534       2.05655624       1.18955442
C        4.33548757       6.60301632       5.62177257      142       1.09587056      -0.74186766      -1.10627176       0.03589442       0.13146897       0.12928605
C        4.55150121       7.95541746       4.97696213      143       0.65844513       0.14770750       1.30904170      -0.62921278      -1.20131323      -0.32104869
C       14.54764302      17.40855367       1.84676723      144      -0.42111057      -0.45585249       0.57854595       0.42346458      -1.81487538       0.42674058
C       15.18990732      17.46187343       0.59712210      145       0.66971671       0.49129234       1.32136419      -0.47938755      -0.08008739      -0.79265131
C       15.35288538      18.74609103      10.02082998      146       0.61405547      -0.36243120       0.18419069      -0.76841506      -1.19026097       1.40762820
C       15.36357185      16.25186015      10.22072217      147       0.10457919       0.37233233      -0.06471844       0.84569902      -0.08308424      -1.31005607
C       14.32696177      16.13798479       2.49214109      148      -0.70127412      -1.20304318       0.81137548       0.04112960       0.03794076       0.16947520
C       14.59069737      14.96078446       1.79144049      149       0.35691410      -0.56909775      -0.21757198       1.19551399       1.18907671       0.06245053
C       15.16031075      15.01564287       0.52615764      150      -0.05465545      -0.09585935       0.95442732      -0.59369192       0.10272675       0.39645707
C       15.31660235      13.71395831      10.14213344      151       1.09064587       0.39321385      -0.22460470      -0.70182568       0.25143493      -1.13952445
C       14.62075253       4.20117581       8.45997256      152      -0.25287937       0.07930513       0.06252760      -0.65119589       0.52421519      -1.21331972
C       15.14202305       4.21803202       9.72710177      153       0.13653549      -0.42080071      -0.06630346       0.63524441      -1.48851143       1.46390846
C       15.31810656       2.92716919       0.18242636      154      -0.44104928      -0.38584286       0.34305488      -0.86781706      -1.87038531      -0.03827801
C       15.45786436       5.38593393       0.12011308      155      -0.25250149      -0.05555224      -0.27116360      -0.45590994       0.17276044      -0.12661984
C       14.39182687       5.43264983       7.78909748      156      -0.43155688      -0.30719544      -0.11929389      -0.60542857      -0.38475012       0.41873805
C       14.46973050       6.63746909       8.48062770      157      -0.78960230      -0.16400584       0.52105853       2.43170201      -0.99707952       0.90869539
C       15.11088605       6.55193570       9.78643770      158      -1.39880042      -0.18776083      -0.66006915      -1.35294722       2.00961708      -1.02417892
C       15.24697303       7.83747832       0.21979205      159      -0.95862289      -0.14368193      -0.37448077       0.20613170       2.88917253      -0.69974638
C        7.06434713      17.43795526       1.83520659      160       0.00228103       0.36309066       0.88718678      -0.09394312       0.85522615       0.58049775
C        6.52073034      17.47044002       0.56441945      161       0.12262141       1.45262106       0.44805472      -0.23967690       0.81806427      -1.74931912
C        6.39224146      18.74585188      10.05825509      162       0.41151234       0.25884555       0.78876048      -1.24041770       0.11709785       0.36478799
C        6.15000081      16.36451596      10.13543191      163      -0.68046013       0.06093509       0.40298634       1.32246126      -2.63571177       1.74951810
C        7.33429543      16.24493913       2.45621476      164       0.65556803       0.47995417       0.08211481      -0.72326150      -0.09423964       0.14119157
C        7.03951292      15.06846936       1.77558435      165      -0.43803099       0.24842391      -0.38006343      -0.71788391       0.15943635      -0.31664540
C        6.54474225      15.07279628       0.46677853      166      -0.08374304       1.81009795      -1.38600782      -0.73476224       1.88400722      -0.93305070
C        6.34899465      13.76723477      10.08938172      167       0.62421741       0.73897383       0.96340261      -0.06973767      -0.00716178      -0.33722780
C        6.93632610       4.20296706       8.47076514      168      -0.93987761      -0.67022050       0.49833085      -0.08823019      -0.56871868       0.45514440
C        6.48784540       4.19937397       9.81340091      169       0.37715178       0.15208139      -0.61869006       0.23867933       1.17776528      -1.67864706
C        6.29504342       2.94537306       0.18460237      170       0.20126460      -0.44184426      -0.55998601       0.04932629      -1.82325140       1.41731861
C        6.26589988       5.42232170       0.13141823      171       0.41746817       0.69964340       0.66133056      -0.46549109       0.30241965       0.31011023
C        7.25128272       5.38600229       7.82672538      172       0.54850965      -0.42579539      -0.08829024       0.50233928       0.36769522      -0.18740824
C        7.06559391       6.63257455       8.42210326      173       0.33683980       0.10776815       0.31868185      -0.75460418      -1.45518446       0.76776748
C        6.51531111       6.59621885       9.70430804      174       0.35111050       0.49689800      -1.18772639       0.11836021       1.03088223       0.88742829
C        6.34025548       7.88680446       0.17384100      175       0.01151517      -1.49685302       0.12669083      -0.74955904      -0.65391964       0.16702939
C       17.78867599      17.37971951       3.36488541      176       0.00920098      -0.44650789      -0.53501206       1.51727331       0.68738643      -2.47587910
C       17.35674486      17.43032430       4.68265535      177       0.35542931      -0.70689708       0.67275411      -0.34453068      -1.61289196      -0.76433199