100
Lattice="13.364 0.0 0.0 3.558 10.594 0.0 3.177 2.738 10.241" Properties=species:S:1:pos:R:3:REF_forces:R:3 REF_energy=-22462.02091295446 pbc="T T T"
Al      10.17587200      10.64652500       0.30997000       0.34395344      -0.38693920      -0.77581444
Al       3.23571600       0.05555400       0.12162300       0.49023430       0.08146026       0.27655814
H        6.44055900      10.33463400       4.16728800       2.53034295      -2.12530472      -0.78908339
H        3.63745700       6.48058600       1.95106000       0.73132098       0.01244311      -1.57029971
H        6.49277400       2.88440900       6.11015600       0.17622650       0.04052727       0.05059571
H        9.86938700       6.89880500       9.02926200      -0.08552826      -0.33871867       0.57975137
H        4.51994300       2.43693500       3.15365300      -2.15326959       1.17923029      -1.81833815
H       12.10225600      10.56089200       9.26348000      -0.48833528      -0.68160613       0.62925127
H        6.57846100       9.81203700       7.86517700      -0.92182481      -0.84795856       0.29733317
H        1.79399900       2.99651200       2.60971400       0.03834286       0.34158905      -0.49619926
H        5.02853500       3.06286200       8.48983300      -0.16837075      -0.22802085      -1.06862555
H        8.29499000      10.01699600       1.79946500       0.46940990      -0.03182306      -0.09626724
C        4.88246400      11.43226300       3.77136700      -1.33612929       2.68446413       1.51001146
C        7.36947300       2.05745600       4.38466900       1.28860399      -0.76595631      -1.83739876
C        5.82281000      10.96992600       4.65987200      -0.70530862       0.89546946       0.33159312
C        5.01728700      11.13034600       2.38398700       0.71709661       0.50480782      -0.46671076
C        6.36825000       2.66436700       3.48625400      -0.23330293      -0.69842063       1.40850893
C        5.38418300       6.66738800       0.63568600       1.72240206       2.70719525      -1.19291525
C        9.55916800       8.68467500      10.10215800      -1.59061348      -0.11740480      -0.72151480
C        4.33761000       6.04760900       1.16601300      -3.37822489      -4.07315191       2.08197598
C        5.23216400       8.22668300       0.66186300       1.21066100      -1.11203914      -0.60758047
C       10.60532100       9.22765800       9.18753200       1.70573257       1.80838232       0.97697652
C       11.75861300      12.32270000       6.61548500       0.99422759      -0.75858856       2.32062732
C        5.97477400      11.39121400       5.95681200      -0.52570678      -0.28575960       1.66387398
C        7.32555300       2.29855600       5.71890600      -1.17075439       0.80216156       0.76960060
C       11.63390600      12.61735900       8.09860300       0.43928840       0.66825902       0.55586582
C        7.27566900      11.20389000       6.83394400      -3.83285918      -1.30976212       0.03266175
C        5.08608700       3.89196300       0.26743000      -0.10505013      -1.15077487      -2.04429338
C        4.11301500       4.59775500       0.91642400      -0.06248603       2.36428105       1.51593065
C        9.31037300       7.32958100       9.86345700      -0.04506115       0.49910872      -0.04487603
C        8.13211300       5.14240800      10.15248100       2.25633945       1.93366652       0.60563466
C        2.77911900       4.04705800       1.30046600      -0.34209710      -0.75525538       0.26591737
O       10.80837500      11.01569200       2.05759600       0.24922834       0.23357032      -0.84898958
O        2.59642600       0.74089700       1.84938200       0.58298273      -0.85604468      -0.94369462
O        6.58764000       3.53487700       2.68963300       1.14889488       1.54597605      -1.68928522
O        5.17496900       2.19071200       3.76578800       0.60077579      -1.76604551       1.89952330
O        6.35902000       8.81595000       0.89100100      -0.74947606       1.32019668      -0.82192460
O        4.10609200       8.74406700       0.35717200       1.27061347      -0.87412674       0.31418469
O       10.76738000       9.02047000       7.98920200      -0.73396356      -0.40667859       0.26665014
O       11.53013900      10.01597100       9.88529800      -0.66262933      -0.19151890      -0.65258866
O        6.22882800      12.69630900       8.44820300      -2.05721060      -0.02342481      -0.52698719
O        6.99022000       2.46754400       8.59059700      -0.35229255      -0.73391266      -1.00665528
O        7.37427500      10.36154600       7.86036600       0.38586345      -0.52120632      -0.68815165
O        8.05391300      12.05217900       6.63759700       4.03579378       2.92659571      -1.08514437
O        7.07055100       4.57180600       9.96433400      -3.49746494      -0.31028999       0.29804639
O        9.25381600       4.55343400      10.07263500       1.16198745      -0.34928076       0.06523763
O        2.71837700       3.29797500       2.44341100       1.01309075       0.60898275       0.42667765
O        1.79304400       4.22843800       0.62386600      -0.08508295       0.56156750      -0.35153716
O        4.82475200       3.08274200       9.41920600       1.68998096       0.22217365       1.85140099
O        8.50094400      10.30418400       0.89056100      -0.87882311      -0.43428761       0.97102493
Al       3.30468400       2.73330400      10.17990800      -3.37677428      -1.04916538       0.11676099
Al      10.04990100       0.06335700       0.00446600       0.27840728       0.51764123       0.62458935
H       13.72306500      10.60292800       4.44427400      -1.38996716       0.49956174       0.01208316
H       10.43125100       6.65441500       0.96613900      -1.33659363      -0.41399800       0.49545878
H       12.65863900       2.55931100       5.92086000       1.45182122      -0.85441923       0.35609213
H       17.04812600       6.75040400       8.90606600      -0.89142666       0.34000731      -0.11036100
H       10.72223000       2.43213400       3.08550700      -0.64347462       0.75287608      -1.68046068
H       17.43907600      10.91045300       9.90596100       0.71218221      -0.93083807      -0.80476660
H       12.44078800       8.85203600       7.38126200      -2.91541244      -0.75846206       1.59579323
H        8.50459700       3.90277300       2.40400800       0.25328554       0.53239782      -0.93349505
H       11.21100200       3.96724400       9.04867100       0.41816679      -0.54633988       0.77574296
H       15.24952100      10.40986100       1.69511700       0.35533520      -0.40553393      -0.85579374
C        8.41633000       1.25825000       3.80995800       0.04136185       0.30797496       4.17892761
C       13.69576600       1.81929800       4.15816300       0.52643646      -1.50464659       3.18743772
C       12.83502700      11.23077900       4.76721200       1.52152177      -0.32540859       0.49380607
C        8.42835100       0.81347500       2.44046600      -2.97518699      -0.73427261       0.93365395
C       12.72327800       2.43825000       3.20935400      -0.35974310      -1.02631085      -2.18428686
C       15.25153600       9.41576300      10.08589500       1.61763526       0.47593228       0.46155261
C       16.22602100       8.69270500       9.38493400       2.16212035       0.10478377      -0.44017852
C       11.00894200       5.98829300       0.36608600       0.42263177       0.07776764       0.21253304
C       12.15793200       8.12805700       0.30512200       0.77744863      -1.03952735      -1.65933959
C       17.54890800       9.25733400       8.79761700      -2.47701312      -0.66187703      -0.12460080
C       18.26943500      12.16326100       6.49021200      -1.13912057       0.34685261      -0.44850324
C       12.76022000      11.42243700       6.21718800      -1.30899747      -0.96082434      -2.22629663
C       13.57188300       1.94636400       5.62471500       0.91678494       1.20240725      -1.01393099
C       18.38310900      12.60024100       7.95171500       3.76802933       0.01893772      -1.45568353
C       13.52531900      10.38077500       7.04987700       2.99663873       0.13726811      -1.58827481
C       15.03202300       6.62841200       9.79776700       1.44674689      -1.03592369      -0.94115385
C       10.89612000       4.60396300       0.21636000      -2.45628746       0.98700691       0.90899552
C       16.15124600       7.30213400       9.25461200      -0.27625475      -0.18879405       0.48822164
C       15.01977900       5.13645900       9.82808700      -0.79154085      -1.29727324       0.50917921
C        9.55391400       4.11791600       0.71974500      -3.11487502      -0.12365721      -1.88917821
O       17.31063000      10.83194700       1.82044500      -0.24893472      -0.30697583      -1.50490267
O        9.51039400       0.72569900       1.88989000       2.74613306      -0.55526212      -2.48821439
O       12.96307700       2.78393000       2.04508000       0.76551460       0.49581359       1.50449027
O       11.47779900       2.28698100       3.63719000       0.29476669      -0.54248580       3.12080656
O       13.26024600       8.77329700       0.47010400       1.14991715       0.09172565      -0.22155299
O       11.11275100       8.73012700       0.40698800      -4.08082202       1.39803117       0.83619114
O        4.73273600       8.66934800       7.89383800       1.26842649      -1.62522567      -1.45439490
O       17.99296900      10.41770200       9.11170200       0.10303336       2.27567878       2.31332024
O       12.66644600      12.48226900       8.83997800       0.73798117      -0.26302540      -0.68164778
O       13.81146600       2.37387000       8.52357400      -3.56029293       0.80634680       1.21773822
O       13.13104800       8.97725900       6.77079400       3.42697301       3.38087930      -0.67253837
O       14.65190200      10.70792200       7.48513600      -2.64578754      -1.33976175      -0.49870042
O       13.86986700       4.54439700      10.03460500       0.66437666       1.43935754      -0.37880217
O       16.12831100       4.51329200       9.72923200      -0.46112118       0.52255203      -0.07256630
O        9.40854000       4.22162100       2.06656300       0.11101458      -0.84639122       0.43364843
O       11.73130000       6.66084600      10.18408500       3.52402238       0.02328031       2.16365273
O       11.35336900       3.26697500       9.73578600       1.51985878      -0.05564536      -0.67078744
O       15.28708400      10.14233100       0.74326100      -0.54033224       0.88672103       0.12532585
100
Lattice="13.364 0.0 0.0 3.558 10.594 0.0 3.177 2.738 10.241" Properties=species:S:1:pos:R:3:REF_forces:R:3 REF_energy=-22462.238798829905 pbc="T T T"
Al      10.23981700      10.37290600       0.20615800      -0.37388057       0.15628759      -0.48343424
Al       6.79666100      10.46878100       0.06979500       0.24974925       1.11902277      -0.47769040
H        7.06793200      11.09265800       4.08462800      -1.55693563       0.46614563       0.16037719
H        3.19800500       6.58684900       0.62232200      -0.49261719       0.12828159       0.03665108
H        6.41173200       2.50135100       6.16297400       0.66808933       0.82592318      -0.20962358
H       10.42273800       6.69264100       9.43479400      -0.44626380      -0.35512334       0.25522313
H        4.48532400       2.90838000       3.27301900       0.17453008       0.34699043       0.12232229
H        8.37427300       7.83176200       0.64850400       0.06729965       0.30955825       0.28738711
H        5.92437800       9.24652100       6.95730800       0.54195872       0.52923279      -0.08644563
H        1.89947900       3.60351500       2.35005800      -2.05223346      -0.43131387       1.36573195
H        5.07690400       4.11985100       9.26066100      -0.36473361       0.94430963      -0.26673910
H        8.47090500      10.55986100       1.72496300      -0.13156078       0.00301179       0.50316849
C        1.47940700       1.39215900       3.57979000       1.19796027      -0.11215306       3.23789922
C        7.38328600       1.99666100       4.28314800       1.65645121       1.30913837       1.78717278
C        6.10295500      11.55026100       4.47625000       0.31857716       0.00645655      -1.20473461
C        1.50817100       0.88117500       2.24179700      -1.01956993      -1.42801126      -2.44229603
C        6.42756000       2.87256500       3.51427800      -0.45997241       1.30270392      -1.70913157
C        5.23787000       6.63706100       0.05510800       0.67886071       0.75473139       0.89875996
C        9.61372600       8.63998800       9.93075400      -0.92265322      -0.41833031      -0.08147415
C        4.03283500       5.97957700       0.33068500       1.66611598       0.69415929       0.17266603
C        5.25494700       8.16673400       0.36394700       0.35283094      -1.65670780      -2.17110687
C       10.93185300       9.37018000       9.56119000      -2.00149582      -1.00259088       2.33930433
C        8.44285300       1.92525100       6.54467400      -1.49663041      -1.03079434       1.47746952
C        6.01865200      11.68061200       5.86890600      -0.20452560      -2.41967392      -0.30930937
C        7.39368400       2.29578700       5.68817900      -1.00291175      -0.58421377      -0.29393366
C       11.91507900      12.63360800       8.07831800       1.58464133       0.32915314      -3.91089730
C        7.12406800      10.86673900       6.60317100      -2.86785886      -0.61438567      -0.27054690
C        8.27438800       6.55850700      10.15792700       1.47154775       1.56644614       0.27300230
C        4.02056200       4.61048500       0.40872900      -1.44222124      -0.69750223      -1.66450596
C        9.52917900       7.19966900       9.81007300      -1.20559696       1.87725446       0.32432512
C        8.18139700       5.12065400      10.10030500      -1.76998084      -4.42742319       0.01899171
C        2.65096800       4.14909900       0.85231600       0.65716523      -1.61629263       1.54712944
O       10.72013300      10.84899800       1.99784900      -0.83457340       0.65730047      -0.26675092
O        6.19166100      10.91112800       1.81311700      -2.31084633       1.00181698       0.41170921
O        6.65635000       3.86454800       2.75223200      -0.23929514      -2.57826008       2.29243363
O        5.16807700       2.48404500       3.84930300      -0.22872894      -0.14734478      -0.47347533
O        6.47981300       8.60504100       0.23502400      -2.17703378       1.17055385       0.42130662
O        4.14351200       8.80754300       0.49099500       1.54816046      -0.10820282      -0.10040826
O       11.22185900       9.56466700       8.42039600       0.06890454       0.00097342      -2.29868809
O        8.56836100       6.92257100       0.35536700       0.16497946      -0.25565867       0.16637197
O       19.38470300      12.60580500       8.48112900       0.46674418      -0.16436857      -0.24089334
O       10.83249800      12.81969000       8.63146400      -1.91000620       0.36390726       1.09358633
O        6.89260400       9.51273600       6.94521700      -0.36546946       1.34373410      -0.29415477
O        8.17784100      11.38635200       6.74883800       2.58791046       0.33652861       0.52425410
O        6.96747700       4.54670800      10.16647200       1.53806014       1.66583882      -0.33757350
O        9.21828500       4.35655400       9.99443900      -0.13295534       1.65595704      -0.02770158
O        2.80352200       3.47121400       2.09752600       1.38440124       0.84974445      -1.42040131
O       14.87258200       4.36584700       0.48992700       1.46986162       0.46971689      -0.73581990
O        4.80768900       3.21857800       9.43986300       0.77571159      -1.63555534       0.63344577
O        8.41237500      10.17748000       0.83947000       2.21420524      -1.20131196       0.28632370
Al      16.52520900       2.77673400      10.13233300      -1.89272170       0.48750533       0.10478891
Al      16.56884000      13.23237200      10.13785000       1.24440005       1.78210668       1.58889753
H       13.64935300      10.63330100       4.30479000       0.64112771      -0.77258462       0.20099342
H       10.82019000       6.50450900       1.81309500      -1.04050077       0.96125782       1.15821101
H       12.99277500       2.67005000       6.17345800      -1.87538527       0.87271829       0.05881861
H       16.45875900       6.62426800       8.59755800      -0.95979487       0.53712402       0.66189348
H       10.93359100       3.51087400       3.57968700      -0.99965314       1.43375408      -0.67774691
H       17.52293000      10.42243000       9.75766400      -0.52026787       0.19704266       0.51804489
H       12.65336100       9.73830500       7.96031200       0.54477151       0.55603757      -0.30935308
H        8.79158900       4.51652900       3.40427000       1.71250074       0.19032385      -1.56292270
H       11.16816700       3.87120100       8.91891200       0.34828009      -0.67402961       0.66594811
H       14.91736700       9.37750600       0.82148100       0.45306334      -3.55573437       1.68614436
C        8.47558800       1.17754400       3.84889800      -3.25404575       0.24548636      -0.27329438
C       13.73935600       2.06656300       4.19849600      -0.93719641      -0.23780339      -1.05437855
C       12.92678600      11.26388000       4.77560500       0.68347892       0.39828136       0.10555201
C       11.86038800      11.06353900       2.53253600       2.83264657      -0.05943105       0.02302371
C       12.68878100       2.84090800       3.39354000       1.58491438       0.07988726      -0.24562211
C       12.09261000       6.52672900       0.14571900       0.12860452       1.12011549       0.40200432
C       16.01577400       8.55473400       9.46342800      -0.61009347      -0.61938749      -1.44641471
C       11.18104400       5.96133200       1.00607400       0.31617833      -3.01994989      -1.21910810
C       12.12205100       7.96151900       0.32381400      -1.58766494       1.54350573       0.65001087
C       17.02724500       8.94342000       8.50423400       2.45208371       4.21921628       3.10054729
C       18.19687800      12.18121900       6.41794000       1.29817518       1.20952149       1.51478651
C       12.98563500      11.62926400       6.14633300       0.23669010      -0.83008117      -2.29418095
C       13.65166500       2.11972700       5.57733900       1.63513265      -0.40626258       0.65120387
C       18.24501900      12.62796600       7.93188700       0.45666700      -1.03557196      -1.84366917
C       14.02143700      10.85441300       6.93324200      -0.01947713      -0.25670614       0.06540269
C       14.79786600       6.58788700      10.06121700      -0.21685764      -0.14156597       0.98267563
C       10.86683000       4.60390700       0.82654900       0.94538126      -0.89307268      -0.51313203
C       15.79632800       7.21810400       9.27825800      -1.35276793      -2.27265362       0.84859465
C       14.74648900       5.06285300       9.98907100      -0.71379840       0.88031384      -0.66960371
C        9.78013900       4.02115400       1.69073100      -1.70105265       1.07099971      -0.45895374
O       13.68139100       0.86794900       1.63160800       2.83651660      -0.44960881       0.17613394
O       12.98977000      10.66992500       2.07423600      -1.06029980       0.07488904      -1.50423830
O       13.04285300       3.57352100       2.46542100      -0.11227082      -0.15734329       0.62444640
O       11.44304700       2.75673200       3.85482900       0.91452288      -1.65554309       1.23807925
O       13.21214900       8.60760200       0.28686200       0.79196868       0.79484163      -0.86470467
O       11.02106800       8.56474900       0.62527500      -0.06706877       0.15337350      -0.85456733
O       17.35872900       8.46605700       7.47582000       0.26367023      -1.62675034      -2.77470008
O       17.92396300       9.91572600       9.03489000       0.04418235      -0.98241543      -1.38955527
O       13.11577900      12.55859500       8.49091000      -0.87400898       0.06903258       3.34822680
O       13.59072500       2.41672500       8.42853700      -0.67449035       0.17905111      -0.54055336
O       13.64420600       9.83524400       7.74084900      -0.02459620       0.20497914      -0.18798518
O       15.20989000      11.02197300       6.70694800       0.10010590       0.17310415       0.11467120
O       10.51410900       1.74876500       0.15679800      -0.09666474       0.24734887      -0.75002627
O       15.76219900       4.53300200       9.40978800       0.30098671      -0.99083785       0.96015996
O        9.70027800       4.73601100       2.93184400      -1.16309611      -1.14177138       0.63333830
O        8.87919600       3.28513400       1.32561000       0.89095461       0.35334311       0.36369385
O       11.35035300       3.11574900       9.52783700       1.03104528       0.19786799       0.97177106
O       15.10297600      10.22653400       0.55352100       1.54365331       2.26631893      -0.76019910
100
Lattice="13.364 0.0 0.0 3.558 10.594 0.0 3.177 2.738 10.241" Properties=species:S:1:pos:R:3:REF_forces:R:3 REF_energy=-22467.334918504643 pbc="T T T"
Al      10.28555200      10.56881700       0.16284200       0.37357975       0.97117971      -0.93437951
Al       6.92092400      10.58736400       0.09623500      -0.34755195      -0.18765196       0.52789170
H        6.84446000      10.54715100       4.42102100       0.41086897       0.03101367       0.21586879
H        3.45083900       6.66231000       1.17748000      -0.33586989       0.50682357      -0.23051842
H        6.47795800       2.64960100       6.16122900      -1.58941843       0.97298822       0.73428341
H        9.93361700       6.67563300       9.06394200       0.07494817      -0.42769633      -0.30048328
H        4.46194000       2.87982200       3.41080800      -0.21461564       0.21751276      -0.60507108
H       10.89715700      10.68096400       9.86556500      -0.41878437      -0.72317573      -0.16961208
H        5.90674100       9.17675600       7.09324100      -1.86640955      -0.36006397       0.04706661
H       15.09688600       3.94718800       2.83399900       0.06436551      -0.52266208       0.00383094
H        4.86453400       4.23892400       9.55945100      -0.11690755       0.76448359      -0.16548391
H        8.67521000       9.96636600       1.67654900      -0.23302988      -0.14906793       0.70305736
C        1.62414800       1.12473200       4.00497900      -1.75470232       0.84806449      -0.46712574
C        7.30983000       1.77992800       4.39252200      -0.71473994      -0.61157545       1.03238276
C        6.13800800      11.24394500       4.85719200      -0.30777082      -0.87977288      -0.35190997
C        5.14545700      11.25014000       2.57545200       1.70204150      -0.31064943      -1.47667556
C        6.35414000       2.41686900       3.44971100      -0.76672919       1.76560174      -0.53009359
C        8.39336200       9.49901700      10.14196500      -2.60373611      -1.58593819       0.74861525
C        9.23068000       8.66280200       9.42068000       2.75132926      -0.31157399      -0.91593545
C        4.07068300       6.12070000       0.48221500       0.33465890      -1.35163870       0.53841677
C        5.28018900       8.17934200       0.22970000      -1.60221173      -0.21694506       0.75391841
C       10.52931100       9.15895800       8.66852500      -1.34636537      -1.41322896      -0.07831323
C       11.81744300      12.22134900       6.65104700      -0.48399577      -0.83284048      -0.56933840
C        6.02637200      11.44281000       6.22384500       1.76719582      -1.16158481       1.29811965
C        7.17893900       1.97407000       5.79991400       2.44171959      -0.15597854      -1.79925388
C        8.28585900       2.19102900       8.00285700      -0.23119462       1.10673495       1.73016422
C        7.14759900      10.60446500       6.94129900      -3.18335584       1.45819601      -1.49141672
C        8.05491400       6.63855500      10.13971600      -0.78356014      -0.42063762       0.34196700
C        3.85342900       4.71558800       0.46730900       0.99515576       0.52828611       0.12602982
C        9.14657400       7.24072200       9.51348900      -1.13898070       1.69836276      -0.42738317
C        4.88330200       2.37157800       0.00310900       1.66695416       2.53779657      -0.78757363
C        2.61606700       4.16413300       1.14431600      -0.97271723      -0.65697805      -0.23579433
O       10.71199300      11.06732000       1.98698900      -0.90182935       0.34713338      -1.05674602
O        6.24471200      10.81274600       1.96775100      -1.73497630       0.81145044       2.03877271
O        6.71357000       3.26525800       2.59720000      -0.25805751      -1.06418423       1.13488853
O        5.03035900       2.14367600       3.70653300       1.32633030      -0.08974950       0.38147458
O        6.39554500       8.74274500       0.18654100       2.08863000       1.50667005      -0.56265404
O        4.23254700       8.74291500       0.70710600      -0.00461256       0.85782132      -0.60072951
O       10.97074600       8.65175100       7.63979800      -0.57789040      -0.96068652      -0.71748639
O       11.30610300      10.04085200       9.20523800       1.23530194       2.31542135       1.55221611
O        6.25166900      12.66175700       8.87604100       0.25843855      -0.54819519      -1.53822520
O        7.13905700       2.50743300       8.54862800       1.33345740      -0.65270693      -0.68531881
O        6.85466700       9.34297400       7.09963200       1.67864548      -1.22342859       0.57458911
O        8.22291600      11.08257000       7.04682000       3.25960036       0.91387599       0.84440736
O        3.81934700       1.75409100       0.15323800      -1.91379447       0.03826213       0.56693596
O        9.19825300       4.62117000      10.08749300       1.55832300      -1.45638236       0.30955362
O        2.70252500       3.98648400       2.53652700       0.01423157       0.70570251      -1.58700211
O        1.58970000       3.90633700       0.49146400       1.59492008       0.44050145       1.08762857
O        4.86368500       3.30817200       9.78601200      -0.21353834      -1.15744225       0.10506710
O        8.62988800      10.02415700       0.71942100      -0.66316207       0.01885390      -0.17413876
Al       3.62929500      10.62121700       0.26715900      -0.40716350       0.40823719      -0.49336487
Al      10.10786400       0.17439200       0.16623500      -0.66352356       0.15709955       0.25186732
H       13.48292700      10.19828600       4.40232000      -0.60969906       0.76596557       0.57228797
H       10.10354000       6.89573500       0.69508900      -0.32934906      -0.73709619       0.30086638
H       12.96199600       2.72796700       6.36878600       1.50210531      -0.53478997      -0.42221165
H       16.54187000       6.90482700       8.44135500      -0.37412225       0.37237698       1.03094809
H       11.14950600       3.18649700       3.20810700       0.55462243      -0.26168791       0.35706864
H       17.58457200      10.60056900       9.93134300       0.83787933      -0.54887859      -0.87517986
H       12.62519500       9.06402500       7.36687800       0.84230419      -0.01107528       0.23387526
H        8.46437900       3.60081900       2.26957200       0.37345890       0.10819151      -0.38987643
H       11.50035400       2.87494100       8.70828700       0.15178816      -0.06267013      -0.74067517
H       15.41253900       9.94723900       1.79120000      -0.65441312       0.09041490       0.17338646
C       11.88910400      11.54946400       3.88991600       0.18824897       0.37307170       1.59984272
C       13.89737100       1.88947000       4.59788500       0.07725856       0.58411453      -0.78819327
C       12.76187400      10.95755800       4.81414800       1.14170761      -0.75410867      -0.21624417
C       11.86434800      11.20093400       2.47912000       1.96569681      -1.71548374      -1.29975590
C       12.99753800       2.78886700       3.77054100      -0.80393665      -0.92201148      -0.83293766
C       15.18671500       9.56614100      10.14885100      -0.06178258      -2.11341851      -0.75252898
C       16.13791500       8.78807100       9.35863900      -0.09075017       1.48889036       0.14969168
C       10.83343000       6.16796700       0.33841200       0.99390261       0.87763886      -0.70875852
C       12.08543900       8.23603400       0.28030500      -3.19841531      -0.20497709       0.07507518
C       17.38556500       9.24168700       8.57779500      -1.78328476       0.70382098       1.68405303
C       18.41990800      12.24305700       6.81116900       0.34497057       0.84466807       0.20008839
C       12.78144000      11.29171500       6.19767400       0.07233233      -0.52372034      -0.85323550
C       13.87257700       2.17599600       5.95786800      -1.47957988       0.11420017       0.56471350
C       18.52801800      12.74729400       8.22943400       0.16175993      -0.75728707       0.16612360
C       13.85295400      10.55601500       7.01659400       0.77799885      -0.61986109      -0.03631580
C       14.86942700       6.72650700       9.86455900       0.59440460       1.81727988      -0.23776739
C       10.67732200       4.79123900       0.20473600       0.50820219      -0.23384389       0.34338831
C       15.91169100       7.45328900       9.18948700      -0.45643149      -2.61682509      -0.41012438
C       14.85485400       5.25665400      10.00848900      -0.06569477      -0.73984162      -0.94771017