304
Lattice="21.63717 0.0 0.0 -0.003217390455063572 21.636489760783718 0.0 0.00016878672533660936 -0.0001687616282665579 10.28804999723128" Properties=species:S:1:pos:R:3:spacegroup_kinds:I:1:momenta:R:3:forces:R:3 spacegroup="P 1" unit_cell=conventional energy=-2140.0914913008864 free_energy=-2140.0914913008864 stress="-0.0009272489254588048 -9.400095762229161e-07 6.869184262122514e-06 -9.400095762229161e-07 -0.0009021047037729474 9.420468162287596e-06 6.869184262122514e-06 9.420468162287596e-06 -0.0018988135186300784" pbc="T T T"
Al      14.71092529      21.62740220       0.01460903        0       0.13860356      -0.51201475       1.69362049       0.22961975       0.00379538       0.00846414
Al       6.92240957      21.62761853       0.01625512        1      -0.26402031      -0.19563240       0.63712867      -0.23354593      -0.00553534       0.00341653
Al      16.23323439      20.12094323       7.72930908        2      -0.08014988      -0.84184903       0.72633070      -0.00305144       0.23587476       0.00610626
Al       5.39842144      20.12159230       7.73085229        3      -0.56531968       0.95598732       0.54848043      -0.00944119       0.23316025       0.01696773
Al      16.22120349       1.51494460       2.58559273        4      -0.73391477       0.04605582       1.98008450      -0.00447281      -0.23079460       0.01034179
Al       5.41624990       1.51516093       2.58744457        5       0.41068010       0.30520152      -0.77461201       0.01525163      -0.23637171       0.00305969
Al       3.89304290       0.00921905       5.16007436        6      -1.34213517      -0.36567949       2.19212601       0.22743817       0.00631847       0.00362874
Al      17.74364468       0.00792090       5.15729658        7      -1.72193827       2.04773933       0.72121580      -0.22699415       0.00080844       0.00801340
Al       5.40087772      12.33310520       7.72375354        8       0.50975439       1.22763516       0.75235602      -0.00413031      -0.22444907       0.01305453
Al       3.89381627      10.81318399       5.15132951        9      -1.08324720       0.39466699      -0.66254674       0.22987666      -0.00475906       0.00732162
Al       5.41444209       9.30624468       2.57859685       10      -1.24144887      -0.26947242       0.51617586      -0.00068885       0.22149864       0.01853057
Al      16.23569056      12.33418690       7.73116093       11       0.29023268       1.43517065       0.14139147      -0.00479726      -0.23509654       0.02282161
Al      14.70993489      10.82689923       0.01512343       12      -1.83735004       1.57037578       1.01177692       0.23326508       0.00396750       0.01641253
Al      16.21615080       9.30256632       2.58795898       13      -0.77099823      -1.21664838       0.14812715      -0.00185860       0.23159662       0.00590369
Al       6.92293393      10.82495208       0.00668723       14      -0.08471398       0.40368616      -0.00483813      -0.22923842       0.00183152       0.01674774
Al      17.74117314      10.80864019       5.15955995       15      -0.61861750       0.60453876       0.98221198      -0.21959132       0.00062272       0.01771248
H       15.58526682      10.76102569       6.02632817       16       0.30043615       0.21089173      -0.11839380       0.06714768      -0.00230601       0.00842872
H       16.17083879      11.46079194       3.45555023       17      -0.00712924      -0.16327376       0.11193673      -0.00732651      -0.06427121       0.00160959
H        5.34745561       0.64397712       8.60667399       18      -0.23672041       0.00394512      -0.18908422      -0.00636815      -0.07172509       0.00120762
H        6.05690245      10.78396078       6.00173973       19       0.35953063       0.10673191       0.15262427      -0.07806074      -0.00872288       0.01039192
H        5.43447245      11.47420716       3.41954206       20      -0.18075078       0.49832080      -0.12766369       0.00944713      -0.08454565       0.01253403
H       16.27756922      10.17463469       8.59494561       21      -0.15873832       0.09978837      -0.29526380       0.00398289       0.08496941       0.01233612
H       16.86976577      10.86431622       0.87695338       22       0.13575844      -0.16160589      -0.20749744      -0.07147359       0.01088505       0.00666478
H        5.36334820      10.17095676       8.57807321       23       0.05390845      -0.14071938      -0.22370122      -0.00280654       0.07163175       0.00538527
H       16.18521667      20.99015135       3.44227865       24      -0.02283782      -0.32614927       0.17891982      -0.00977238       0.07361119       0.00489437
H       16.87444302      21.60618449       0.86501924       25       0.05741228       0.04789636       0.12981075      -0.08032473      -0.01968663       0.00712118
H       16.26535458       0.64592476       8.58486332       26       0.11060355      -0.21821773      -0.14455908       0.01364084      -0.07033093       0.00260651
H       15.58210090       0.03841432       6.01285082       27       0.03061973      -0.04154761       0.34586697       0.07178547       0.01389243       0.00306619
H        4.76585778      21.55663645       0.89372290       28      -0.24197536       0.04596393      -0.04067858       0.05751480       0.01326244      -0.00057202
H        6.05049030       0.07065236       6.03270676       29      -0.21147827       0.07032529      -0.43080616      -0.07209744      -0.00741445       0.00553072
H        5.46919184      20.99253102       3.46326627       30      -0.00358672      -0.08454901       0.19113492       0.00596435       0.07439076       0.00099670
H        4.75965897      10.85566204       0.85174766       31       0.12025834      -0.51784600       0.01012427       0.07558511       0.00416694       0.01188600
H       12.96689340      19.82391220       5.41408631       32       0.02021271      -0.27477915       0.32217704       0.04718479      -0.02602283      -0.04489240
H        8.65200908      19.82347941       5.41809865       33      -0.08394339      -0.22879415       0.28486932      -0.02908619      -0.02262122      -0.04076727
H       10.81016248      21.24061307       8.85739376       34       0.24414924       0.04612731      -0.29018191       0.01142893       0.04797244       0.01758900
H       10.80905610      19.43793695       4.21151615       35       0.06461004      -0.03812186      -0.15220715       0.00695334      -0.03163721      -0.10213207
H       12.98275688       1.84118572       4.84988965       36      -0.38330290      -0.29614445      -0.27188164       0.03873340       0.03008777       0.03701270
H        8.66419350       1.84551300       4.85112422       37      -0.29865157      -0.19783486       0.06982058      -0.04594329       0.03179208       0.03759849
H       10.82157381       0.42729752       1.41131470       38      -0.21182638      -0.01258892       0.15849372      -0.00223817      -0.04729201      -0.02729165
H       10.82397988       2.22045354       6.05976433       39      -0.05886490      -0.08624480      -0.03606900      -0.00372435       0.03354461       0.10519271
H        2.15336339      19.80220050       9.99916155       40       0.17647675      -0.06850342      -0.15018602       0.04890128      -0.03454016       0.03869166
H       19.47197126      19.79765688       9.99669242       41       0.14903206       0.19536973      -0.48900637      -0.03988486      -0.02699304       0.03821492
H       21.63066085      21.21555244       6.55914628       42      -0.55331402      -0.28170454      -0.32243929       0.00561664       0.04733833      -0.03580517
H       21.63126725      19.42565814       0.92016319       43       0.15565045       0.08710215      -0.12907078       0.00163669      -0.03083395       0.10394500
H        2.16453251       1.82157155       0.27592550       44      -0.03070281       0.26421710       0.36035528       0.03192527       0.02173710      -0.04400950
H       19.48681759       1.82395169       0.26800370       45      -0.15719198       0.10131607      -0.29475593      -0.04300327       0.02286500      -0.04056970
H        0.00195097       0.38420330       3.70400664       46      -0.37130420       0.40117850       0.18397830      -0.00558847      -0.04710288       0.02648191
H        0.00912836       2.21325941       9.35729011       47      -0.07803013       0.05402375      -0.03096269      -0.00671578       0.02831917      -0.09710264
H        3.58994730      18.39334959       2.84834952       48       0.04384550       0.06819617       0.11308587      -0.02657371       0.03637845      -0.05023945
H        3.58691049      14.07838457       2.83981044       49       0.20174694      -0.19942144       0.01110980      -0.02361242      -0.04358033      -0.04249724
H        5.01708020      16.23050978       6.27982572       50       0.00484505       0.17625291      -0.01272111       0.04859492      -0.00470226       0.02350539
H        3.20034619      16.23794230       1.63981229       51      -0.29674255       0.34461494      -0.05886845      -0.02854394      -0.00536775      -0.09729934
H        3.56955439       3.25530447       7.42395976       52      -0.07122283       0.21099698       0.22170719      -0.03133813      -0.04751270       0.03843528
H        3.56869578       7.57394787       7.42118199       53       0.06367834      -0.03740400      -0.08325949      -0.02852055       0.03993405       0.03683629
H        4.98619544       5.41251893       3.98373872       54       0.33288879       0.27679472       0.10014170       0.04547896      -0.00039135      -0.03131962
H        3.19384810       5.41547178       8.63280563       55       0.24744682      -0.24105792      -0.25085546      -0.03092252      -0.00501540       0.09693822
H       14.38969948      18.38773342       2.28014052       56      -0.18501171      -0.18379032      -0.51495612      -0.03231893       0.04648630       0.03937718
H       14.38817788      14.06973913       2.28168373       57       0.05148728      -0.33664723      -0.27630359      -0.03111343      -0.04700871       0.03655773
H       15.79892918      16.22743396       9.12735220       58      -0.08065183       0.04776945      -0.16003906       0.04916512      -0.00068642      -0.03157038
H       14.01376992      16.22925734       3.49083824       59       0.32027628       0.08363336       0.43741626      -0.03332928      -0.00149094       0.10588880
H       14.40632409       3.25356433       7.98579017       60       0.30855485       0.02389273      -0.06555311      -0.02224599      -0.03680905      -0.03888394
H       14.40308607       7.56852939       7.99144860       61       0.01266966      -0.16309960      -0.08638515      -0.02450177       0.03797912      -0.04678558
H       15.84108463       5.40910385       1.13312583       62       0.34167716      -0.08123186       0.20783722       0.05056392      -0.00185581       0.02905818
H       14.01391791       5.41204024       6.78568914       63       0.02139661      -0.24548408      -0.12481564      -0.02898318      -0.00200208      -0.09800492
H        7.24186089      18.38405524       2.27849443       64       0.19410038       0.33627353      -0.35182210       0.03208097       0.04170157       0.03994828
H        7.24769595      14.06562827       2.27715699       65      -0.05493128      -0.19776482       0.11343162       0.03040853      -0.04837577       0.03948866
H        5.82938733      16.22332304       9.12652915       66       0.04556831       0.01375001      -0.23394671      -0.04400194       0.00605121      -0.02448346
H        7.61912124      16.22536281       3.48878063       67      -0.03919022       0.08150444      -0.09540865       0.03388479      -0.00253917       0.10576358
H        7.23533479       3.24382778       7.99402061       68       0.11856855      -0.08607009       0.20239047       0.01944712      -0.02727650      -0.04566438
H        7.22841808       7.55944222       7.98249799       69       0.17703576      -0.16059072      -0.21987232       0.02650344       0.04111626      -0.04075328
H        5.79408136       5.40737294       1.13271430       70      -0.16904305       0.14844594      -0.05164504      -0.04474701       0.00301653       0.01934554
H        7.62251615       5.39927472       6.78517473       71       0.08028879       0.17920268       0.05547949       0.02943853       0.00734725      -0.09876379
H       18.04704073      18.37971871       2.84166229       72      -0.17516998       0.17301350      -0.46196245       0.02525588       0.03763927      -0.04134017
H       18.05179373      14.06367159       2.85030425       73      -0.22198116       0.12945578      -0.45108838       0.01923528      -0.02373052      -0.04511678
H       16.61265668      16.22553342       6.27807675       74       0.13934219      -0.40489474      -0.09732521      -0.04685448       0.00477149       0.02525807
H       18.44048957      16.22020033       1.64300158       75       0.34009889       0.24550222       0.21092041       0.03074716       0.00669278      -0.10270357
H       18.07121946       3.24859716       7.42354824       76       0.09681081       0.32293488       0.15390835       0.02713121      -0.04817336       0.03875394
H       18.06148974       7.56680776       7.42519432       77      -0.00624086      -0.05515820       0.02743205       0.03208044       0.04735862       0.04079901
H       16.64560208       5.40472974       3.98713378       78      -0.68796696      -0.06848297      -0.17577627      -0.04353575       0.00797517      -0.03045595
H       18.44069738       5.40854806       8.63548053       79       0.04918221      -0.24939956      -0.25177900       0.03187271      -0.00122233       0.09930033
H        2.14896774       9.00185718       0.26728354       80      -0.07575496      -0.31699655      -0.16248678       0.04013214      -0.02346513      -0.04349131
H       19.47082021       9.00488618       0.27366213       81      -0.06855557      -0.03844999       0.08994820      -0.03009873      -0.02419903      -0.04264982
H       21.63351654      10.42742904       3.70863626       82       0.47271473      -0.10936152      -0.00791488       0.00412941       0.04647834       0.01867071
H       21.62673805       8.61722771       9.35368930       83       0.20331250       0.05844155       0.12487972       0.00503551      -0.03057241      -0.10016445
H        2.16243202      12.65393709       9.99422329       84      -0.44357450      -0.08092002      -0.08196796       0.04556345       0.03159846       0.03886071
H       19.48147006      12.66670266       9.99185704       85       0.32882447      -0.20260382       0.26600302      -0.04922884       0.03032919       0.04142411
H        0.00168160      11.24069799       6.55554546       86      -0.01130946       0.36109787       0.25370560      -0.00441150      -0.04607387      -0.03286677
H        0.00370201      13.03726826       0.91512205       87       0.33320947       0.06636426       0.13297911      -0.00167506       0.03216809       0.09882891
H       12.97109370       8.97625092       4.85163862       88      -0.40899126       0.03113896       0.21230830       0.04010978      -0.02905888       0.03653216
H        8.65253048       8.97906371       4.84896372       89      -0.14100934      -0.13041198       0.01880982      -0.04480215      -0.03062538       0.03907847
H       10.81381612      10.39998834       1.41378383       90      -0.12081502      -0.31640258       0.17253657       0.00388391       0.04334346      -0.02845027
H       10.81091420       8.60148710       6.06007297       91      -0.00398296      -0.56572301       0.12901889       0.00074931      -0.03396425       0.10667102
H       12.98007925      12.63497208       5.41593816       92       0.13319757      -0.30248611       0.21304477       0.03290157       0.02195475      -0.04427364
H        8.66497747      12.64103037       5.41172006       93       0.24325285      -0.09692083      -0.37163398      -0.03741201       0.02173968      -0.04173468
H       10.81901187      11.20084927       8.84617979       94       0.08955757       0.14883734       0.34755338      -0.00717353      -0.04777313       0.02806023
H       10.82385721      13.02682870       4.20987006       95       0.01351208      -0.37159250      -0.14805377      -0.00295919       0.02880328      -0.09537349
C       12.01613135      20.04351471       5.89340656       96      -0.70092548       0.48689492       0.09334861       0.03299306       0.04790359       0.01584586
C       12.02343300      20.55757625       7.20132636       97       0.24307001      -0.03992811      -0.54528957      -0.15866140      -0.00371915      -0.03893127
C       13.32078303      20.73520011       7.91603719       98      -0.91036421      -1.04243533      -0.58655651       0.01517034      -0.04422330       0.01554838
C       10.81323421      20.84295099       7.84525541       99      -0.33448846       0.19577839      -2.29602056      -0.00399414      -0.00506214      -0.05613154
C       10.81009915      19.81158238       5.23270799      100      -0.01045140      -0.12840834      -0.13115102       0.00452933       0.06164360       0.09544170
C        9.60488524      20.04286560       5.89412672      101       1.31831844       0.16836560      -0.01576469      -0.02190501       0.05281848       0.01810706
C        9.60309917      20.55757625       7.20132636      102      -0.86307308       0.55583232      -0.73544542       0.15704759       0.00014560      -0.02830398
C        8.30809984      20.73541645       7.91727176      103      -0.15473682      -0.11060938      -0.67046569      -0.01811640      -0.04505042       0.01688845
C       12.02901493       1.62396317       4.37417022      104       0.98644908       1.38574078       1.34299940       0.01033154      -0.06271388      -0.02675053
C       12.03101673       1.11336348       3.06532450      105      -1.45381434      -0.17656409      -0.79900687      -0.15816311      -0.00700766       0.02306341
C       13.32406840       0.93747058       2.34814453      106      -1.27983649       0.31626650       0.40920207       0.03238194       0.02999867       0.01444447
C       10.82109827       0.82669053       2.42263001      107      -0.21168161      -0.78629727      -0.75457659      -0.00183983       0.00816237       0.05619690
C       10.82315230       1.85265000       5.03641200      108       0.13851298      -0.45076287       0.05145644       0.00159692      -0.04621687      -0.08963255
C        9.61668649       1.62634318       4.37406734      109      -0.79843225       1.51190657       0.56544105      -0.01949046      -0.06279886      -0.02016154
C        9.61154812       1.11509440       3.06542738      110      -0.25568424      -0.03179694      -0.27993176       0.15550625      -0.00804084       0.02140978
C        8.31701075       0.93855239       2.34917334      111      -0.77570774      -0.63646803       0.68447218      -0.03980151       0.03271267       0.01189342
C        1.20063869      20.01922232       9.52189891      112       1.01682188      -0.80336190       0.91732681       0.01084264       0.06552733      -0.02134926
C        1.20486900      20.52791768       8.21233303      113       1.15726423      -1.14605398       1.83547798      -0.14638963       0.00578788       0.02465321
C        2.49916706      20.70058864       7.49453578      114      -0.65939432       0.58899710      -0.17559075       0.03201071      -0.03381755       0.01333469
C       21.63225149      20.81569353       7.57005007      115       0.17370663      -0.29935837       0.41336084      -0.00091118      -0.00487703       0.05508282
C       21.63158099      19.79289377      10.18465509      116      -0.00812709       0.32551328       1.17654754      -0.00523874       0.03947243      -0.09195418
C       20.42526439      20.01814050       9.52159027      117      -0.68580593      -1.32323135      -0.52252505      -0.00739432       0.05860696      -0.02139764
C       20.42257062      20.52813404       8.21264167      118       0.75039434      -0.31534675      -0.40693993       0.15035851       0.00708048       0.01706079
C       19.12971227      20.70058866       7.49330122      119      -1.07921500      -0.50293205      -0.58559091      -0.03007386      -0.03472052       0.01401630
C        1.21145609       1.59870793       0.74969020      120       0.15382869      -0.06976707      -0.98046675       0.01970652      -0.05339336       0.02279896
C        1.21285326       1.07724712       2.05452358      121      -0.39441940      -0.05641204      -0.03092879      -0.16346542       0.00782303      -0.04025866
C        2.50722690       0.90003250       2.77211507      122       1.26713791      -0.23327421      -1.60260167       0.01695530       0.04134867       0.01939856
C        0.00165791       0.78860585       2.69474894      123      -0.77756343       0.29028387       0.11259572       0.00092860       0.00028846      -0.04597969
C        0.00665267       1.83369106       0.08837435      124       1.47644429      -0.96625874      -0.14098639      -0.00003071      -0.05841789       0.09540598
C       20.43694691       1.59978980       0.74691243      125       0.47301500       0.68267347      -0.24964880      -0.03260403      -0.04894583       0.01898779
C       20.42904005       1.07876171       2.05226021      126      -0.62210463       0.74882766       0.20360470       0.15729823       0.00428225      -0.03823523
C       19.13236265       0.90089802       2.76841137      127       0.35182595      -1.86057412      -0.28927250      -0.01983607       0.03839980       0.02166856
C        3.81057960      17.44003808       3.32221711      128       1.06966211      -0.46428980       0.45601750       0.05509764       0.02305116       0.01870766
C        4.32881098      17.44174757       4.62807929      129       0.28241352       0.08081244      -0.65222700      -0.00472332      -0.17181260      -0.03607417
C        4.50605508      18.73603062       5.34536214      130       0.05051303      -0.15162893      -0.86582286      -0.04794457       0.01564321       0.00772103
C        4.61591045      16.23074272       5.26923057      131       0.40581699       0.22344197      -0.96568033      -0.00501524      -0.01045754      -0.05239225
C        3.57728278      16.23554555       2.65997533      132       0.53522420      -0.68881962       1.18138002       0.05611278      -0.00294640       0.09194740
C        3.80963989      15.02865135       3.31892493      133      -1.34056603       0.48163479       0.88049391       0.04726132      -0.02493999       0.01629806
C        4.32743993      15.02105714       4.62530152      134      -1.18769260       0.13989273       0.16298171      -0.00200201       0.15858013      -0.03533445
C        4.50528572      13.72372150       5.33949795      135      -0.95860574      -2.55538293      -0.68879762      -0.04108489      -0.01879346       0.01582317
C        3.78815672       4.20775058       6.94669712      136       1.59688157      -1.28364112       0.26459969       0.05990783      -0.00906667      -0.01602849
C        4.29834048       4.20257929       5.63764564      137      -0.70040955       0.23356781      -0.57139208       0.00313370       0.16124415       0.02035798
C        4.47183498       2.90786351       4.92077431      138      -0.01034677      -1.40102031      -0.91983012      -0.04218588      -0.04406452       0.02902347
C        4.58592438       5.41250235       4.99464251      139      -1.18455777       1.65559830       0.33901544      -0.00416050      -0.00695972       0.06215257
C        3.56123061       5.41440675       7.60904178      140      -0.17375670       1.71716366       0.04708769       0.04716874       0.00170700      -0.09369629
C        3.78801431       6.62043556       6.94597696      141       0.47707278      -0.57377549       0.42017307       0.06378994       0.00442429      -0.03123916
C        4.29862972       6.62262068       5.63692547      142       0.38342354      -1.14499564       0.87175089       0.00542207      -0.15096126       0.01823830
C        4.47238846       7.91584547       4.91779078      143      -0.24233558      -0.09251659      -2.17617923      -0.04467723       0.03619993       0.02503501
C       14.60663787      17.43443749       1.80390669      144      -0.27306853      -0.20545544      -1.37058447       0.06448214       0.01393564      -0.02383593
C       15.11530580      17.43748808       0.49434080      145      -0.58569794       0.45011736      -0.77559161       0.00409453      -0.15191975       0.02161938
C       15.28880058      18.73076045      10.06469643      146       0.50289377      -1.94888207       0.32742244      -0.03525316       0.04063172       0.01805973
C       15.40147093      16.22763373      10.13928479      147      -1.05767770      -0.63925758       0.67257661      -0.00764852      -0.00548171       0.06174715
C       14.38007051      16.22862504       2.46697151      148       0.19843701       0.12602724       0.11116069       0.04443291       0.00420548      -0.08908747
C       14.60591469      15.02240161       1.80442109      149       0.11399776      -0.62601477      -1.18048709       0.06230020      -0.01575809      -0.01953224
C       15.11458369      15.01831215       0.49495809      150      -1.76978998       0.50749025       0.55563471       0.00689936       0.16221962       0.02009833
C       15.28867955      13.72450943      10.06603388      151       0.75812976       1.09505392       0.45924441      -0.03964678      -0.04526365       0.01962513
C       14.62862060       4.20469658       8.46387585      152       0.28487233      -0.34832226       0.31765932       0.04835701      -0.02811559       0.01319463
C       15.14923316       4.19904968       9.76912076      153       0.91636090      -0.04467089      -0.13885390      -0.00284216       0.15373557      -0.03180771
C       15.32734279       2.90296459       0.19742768      154      -0.03877148      -0.73823553      -1.52165595      -0.04682321      -0.01957467       0.01254990
C       15.43775119       5.40933678       0.12355948      155      -0.39983144      -0.74444756       0.21363414      -0.00664037       0.00493905      -0.05166042
C       14.39323438       5.41094169       7.80492625      156       0.07624124      -0.07338840      -0.07905329       0.06137943       0.00313777       0.10141013
C       14.62674743       6.61629969       8.46624210      157       0.47512269       0.55165736      -1.84993503       0.05099684       0.02378776       0.01553211
C       15.14800768       6.62017286       9.77107548      158      -1.31057746      -0.13560480       0.34041269      -0.00353892      -0.16883753      -0.03463428
C       15.32551557       7.91570650       0.19989681      159      -0.93479862      -0.57511989       0.51333268      -0.04381814       0.02183510       0.01329333
C        7.02497405      17.43054295       1.80236348      160       0.44707638      -0.63903516      -0.90741138      -0.05855125       0.02112662      -0.01965800
C        6.51647849      17.43445900       0.49290048      161       0.03503455       0.30685894       1.20089875      -0.00666120      -0.14906057       0.01876437
C        6.34377841      18.72881317      10.06449067      162      -0.11527430      -0.75592882      -0.28989686       0.03497166       0.04301179       0.01925131
C        6.22904222      16.22482101      10.13784447      163      -0.03434195       0.12451733      -0.04015988       0.00800184      -0.00843129       0.05861558
C        7.25257089      16.22473051       2.46501678      164      -0.81503448       0.05866614      -1.27252650      -0.04614772      -0.00693298      -0.09678129
C        7.02771280      15.01850709       1.80154044      165      -0.66795623       0.73899115       0.67392361      -0.06537802      -0.00403170      -0.02358981
C        6.51705460      15.01528308       0.49259183      166       0.19907912      -0.38073386      -0.15768908      -0.00385622       0.15900599       0.02312510
C        6.34409017      13.72191312      10.06212442      167      -0.15361932       1.24214087       0.98700081       0.03993968      -0.03732266       0.01894215
C        7.00995784       4.19712377       8.46644786      168       0.62944276       1.06104265       0.26608824      -0.04996976      -0.02266327       0.02181820
C        6.48787455       4.19558782       9.77086972      169       1.20087294      -0.57243238      -0.30431812       0.00251427       0.16475072      -0.02877424
C        6.30940341       2.90101726       0.20010257      170       1.28297900       0.51854715       0.58069548       0.05177914      -0.01669005       0.00966097
C        6.19824720       5.40695677       0.12314796      171      -0.11018014      -1.34113022       0.80775001       0.00207845      -0.00043718      -0.05206967
C        7.24323290       5.40185438       7.80441185      172      -1.26713494       0.65361953       1.10005934      -0.05893725       0.00461420       0.09469991
C        7.00765178       6.60894335       8.46222976      173      -0.15223627       0.09575900       1.23215457      -0.05236278       0.02250497       0.01366472
C        6.48751451       6.61649471       9.76778331      174       0.19831854       0.07584961       0.91948981       0.00585352      -0.15984902      -0.03834323
C        6.30909066       7.91375931       0.19444414      175      -0.30808460       1.27414473      -0.44221603       0.04731551       0.02436406       0.00787106
C       17.82562536      17.42878713       3.32046814      176       0.40830513       0.79730316      -0.58927192      -0.04927270       0.03298965       0.01252097
C       17.30548815      17.43590576       4.62591880      177      -0.39432091      -1.00063951      -0.40174616       0.00082594      -0.15922031      -0.03550908