304
Lattice="21.63717 0.0 0.0 -0.003217390455063572 21.636489760783718 0.0 0.00016878672533660936 -0.0001687616282665579 10.28804999723128" Properties=species:S:1:pos:R:3:spacegroup_kinds:I:1:momenta:R:3:forces:R:3 spacegroup="P 1" unit_cell=conventional energy=-2140.0914913008864 free_energy=-2140.0914913008864 stress="-0.0009272489254588019 -9.400095762063885e-07 6.869184262128827e-06 -9.400095762063885e-07 -0.0009021047037729588 9.420468162294857e-06 6.869184262128827e-06 9.420468162294857e-06 -0.001898813518630047" pbc="T T T"
Al      14.71092529      21.62740220       0.01460903        0      -1.97713658       1.53369316      -1.22170463       0.22961975       0.00379538       0.00846414
Al       6.92240957      21.62761853       0.01625512        1      -1.52304963      -0.73792969       1.69653992      -0.23354593      -0.00553534       0.00341653
Al      16.23323439      20.12094323       7.72930908        2      -0.10382219       0.43023848       0.31122637      -0.00305144       0.23587476       0.00610626
Al       5.39842144      20.12159230       7.73085229        3       0.82452013       1.34702329       0.96434272      -0.00944119       0.23316025       0.01696773
Al      16.22120349       1.51494460       2.58559273        4       0.34452679      -0.44085135      -1.87194948      -0.00447281      -0.23079460       0.01034179
Al       5.41624990       1.51516093       2.58744457        5      -0.39895824       0.33102153       1.59242853       0.01525163      -0.23637171       0.00305969
Al       3.89304290       0.00921905       5.16007436        6      -1.17257957      -0.03747941      -0.63838015       0.22743817       0.00631847       0.00362874
Al      17.74364468       0.00792090       5.15729658        7       0.00024194      -0.76796421      -0.68931952      -0.22699415       0.00080844       0.00801340
Al       5.40087772      12.33310520       7.72375354        8      -0.16673658       1.21786600      -0.91663351      -0.00413031      -0.22444907       0.01305453
Al       3.89381627      10.81318399       5.15132951        9      -1.43192893      -0.64785285      -0.99418866       0.22987666      -0.00475906       0.00732162
Al       5.41444209       9.30624468       2.57859685       10       0.22935762       1.72526335      -0.55008185      -0.00068885       0.22149864       0.01853057
Al      16.23569056      12.33418690       7.73116093       11      -0.24323252       0.05751999       0.55348298      -0.00479726      -0.23509654       0.02282161
Al      14.70993489      10.82689923       0.01512343       12      -0.56169972      -0.30707720      -0.35385838       0.23326508       0.00396750       0.01641253
Al      16.21615080       9.30256632       2.58795898       13       1.29114243      -0.78875260       1.49836593      -0.00185860       0.23159662       0.00590369
Al       6.92293393      10.82495208       0.00668723       14      -1.86528588       0.19043741       1.35681867      -0.22923842       0.00183152       0.01674774
Al      17.74117314      10.80864019       5.15955995       15       1.33791997      -0.38477360      -0.82044373      -0.21959132       0.00062272       0.01771248
H       15.58526682      10.76102569       6.02632817       16      -0.34528023      -0.15035514       0.02354346       0.06714768      -0.00230601       0.00842872
H       16.17083879      11.46079194       3.45555023       17      -0.04597212      -0.06639779       0.04976697      -0.00732651      -0.06427121       0.00160959
H        5.34745561       0.64397712       8.60667399       18       0.12548322       0.27972002      -0.14609794      -0.00636815      -0.07172509       0.00120762
H        6.05690245      10.78396078       6.00173973       19       0.21265825       0.34471513       0.12000414      -0.07806074      -0.00872288       0.01039192
H        5.43447245      11.47420716       3.41954206       20      -0.26201828      -0.22903864       0.36762587       0.00944713      -0.08454565       0.01253403
H       16.27756922      10.17463469       8.59494561       21       0.16795219       0.16833437       0.08522007       0.00398289       0.08496941       0.01233612
H       16.86976577      10.86431622       0.87695338       22      -0.01226379      -0.15980260      -0.17373245      -0.07147359       0.01088505       0.00666478
H        5.36334820      10.17095676       8.57807321       23       0.40068760       0.07886650       0.08284628      -0.00280654       0.07163175       0.00538527
H       16.18521667      20.99015135       3.44227865       24      -0.16652505       0.29640155       0.13673391      -0.00977238       0.07361119       0.00489437
H       16.87444302      21.60618449       0.86501924       25       0.31743476       0.13016086       0.02757436      -0.08032473      -0.01968663       0.00712118
H       16.26535458       0.64592476       8.58486332       26       0.14407758       0.03267447      -0.38576959       0.01364084      -0.07033093       0.00260651
H       15.58210090       0.03841432       6.01285082       27      -0.23774012      -0.02536423       0.12378215       0.07178547       0.01389243       0.00306619
H        4.76585778      21.55663645       0.89372290       28      -0.10946990       0.26616856       0.20384270       0.05751480       0.01326244      -0.00057202
H        6.05049030       0.07065236       6.03270676       29      -0.28880058       0.29195335       0.10717956      -0.07209744      -0.00741445       0.00553072
H        5.46919184      20.99253102       3.46326627       30       0.17015210       0.31721840      -0.30007277       0.00596435       0.07439076       0.00099670
H        4.75965897      10.85566204       0.85174766       31       0.14386460      -0.10662684       0.11393378       0.07558511       0.00416694       0.01188600
H       12.96689340      19.82391220       5.41408631       32       0.22515069       0.06523166       0.12676225       0.04718479      -0.02602283      -0.04489240
H        8.65200908      19.82347941       5.41809865       33      -0.09954604       0.07986395      -0.09147252      -0.02908619      -0.02262122      -0.04076727
H       10.81016248      21.24061307       8.85739376       34       0.10273072      -0.31581616      -0.27264164       0.01142893       0.04797244       0.01758900
H       10.80905610      19.43793695       4.21151615       35      -0.05281281       0.02132546      -0.51190339       0.00695334      -0.03163721      -0.10213207
H       12.98275688       1.84118572       4.84988965       36      -0.16452609      -0.03453495       0.04496653       0.03873340       0.03008777       0.03701270
H        8.66419350       1.84551300       4.85112422       37      -0.25093772      -0.14311011       0.19311100      -0.04594329       0.03179208       0.03759849
H       10.82157381       0.42729752       1.41131470       38       0.02779273       0.12814157       0.10019709      -0.00223817      -0.04729201      -0.02729165
H       10.82397988       2.22045354       6.05976433       39      -0.09466844      -0.48977967       0.16810447      -0.00372435       0.03354461       0.10519271
H        2.15336339      19.80220050       9.99916155       40       0.25399090       0.33282842       0.10168791       0.04890128      -0.03454016       0.03869166
H       19.47197126      19.79765688       9.99669242       41       0.05012512       0.04872096      -0.04070006      -0.03988486      -0.02699304       0.03821492
H       21.63066085      21.21555244       6.55914628       42      -0.01606888       0.21118696       0.18715202       0.00561664       0.04733833      -0.03580517
H       21.63126725      19.42565814       0.92016319       43       0.06028779      -0.08775311       0.09583711       0.00163669      -0.03083395       0.10394500
H        2.16453251       1.82157155       0.27592550       44      -0.32571308      -0.12229423      -0.27624900       0.03192527       0.02173710      -0.04400950
H       19.48681759       1.82395169       0.26800370       45       0.11444952      -0.25068454       0.26863268      -0.04300327       0.02286500      -0.04056970
H        0.00195097       0.38420330       3.70400664       46      -0.16451704       0.32921450      -0.17794771      -0.00558847      -0.04710288       0.02648191
H        0.00912836       2.21325941       9.35729011       47      -0.01515641      -0.13671002      -0.20073499      -0.00671578       0.02831917      -0.09710264
H        3.58994730      18.39334959       2.84834952       48      -0.11388301       0.28961844       0.11425268      -0.02657371       0.03637845      -0.05023945
H        3.58691049      14.07838457       2.83981044       49      -0.32642465      -0.33203091       0.36609123      -0.02361242      -0.04358033      -0.04249724
H        5.01708020      16.23050978       6.27982572       50      -0.11159009       0.23874743      -0.14257864       0.04859492      -0.00470226       0.02350539
H        3.20034619      16.23794230       1.63981229       51       0.44920429      -0.16263269      -0.06542554      -0.02854394      -0.00536775      -0.09729934
H        3.56955439       3.25530447       7.42395976       52      -0.16247257       0.03933262      -0.05180789      -0.03133813      -0.04751270       0.03843528
H        3.56869578       7.57394787       7.42118199       53       0.03572352       0.27939762      -0.15934052      -0.02852055       0.03993405       0.03683629
H        4.98619544       5.41251893       3.98373872       54      -0.03728678       0.54364686       0.35677774       0.04547896      -0.00039135      -0.03131962
H        3.19384810       5.41547178       8.63280563       55       0.21001998       0.20809321       0.07641214      -0.03092252      -0.00501540       0.09693822
H       14.38969948      18.38773342       2.28014052       56       0.11791105       0.08826907      -0.37902354      -0.03231893       0.04648630       0.03937718
H       14.38817788      14.06973913       2.28168373       57      -0.14487319      -0.16880089      -0.14308323      -0.03111343      -0.04700871       0.03655773
H       15.79892918      16.22743396       9.12735220       58       0.20423917       0.18828673       0.10036920       0.04916512      -0.00068642      -0.03157038
H       14.01376992      16.22925734       3.49083824       59      -0.53988054       0.15616970      -0.11997782      -0.03332928      -0.00149094       0.10588880
H       14.40632409       3.25356433       7.98579017       60       0.00286591       0.22905174       0.10876428      -0.02224599      -0.03680905      -0.03888394
H       14.40308607       7.56852939       7.99144860       61      -0.42340611      -0.24034684       0.38511457      -0.02450177       0.03797912      -0.04678558
H       15.84108463       5.40910385       1.13312583       62      -0.04087924       0.41798954      -0.18006801       0.05056392      -0.00185581       0.02905818
H       14.01391791       5.41204024       6.78568914       63       0.08635959      -0.02667120       0.04580629      -0.02898318      -0.00200208      -0.09800492
H        7.24186089      18.38405524       2.27849443       64      -0.11530537      -0.22226359       0.06876942       0.03208097       0.04170157       0.03994828
H        7.24769595      14.06562827       2.27715699       65       0.10552468      -0.24209913      -0.45783105       0.03040853      -0.04837577       0.03948866
H        5.82938733      16.22332304       9.12652915       66      -0.16449228       0.12204477       0.06563518      -0.04400194       0.00605121      -0.02448346
H        7.61912124      16.22536281       3.48878063       67       0.04107179      -0.13365059      -0.27157361       0.03388479      -0.00253917       0.10576358
H        7.23533479       3.24382778       7.99402061       68       0.09428686       0.02506873       0.07745886       0.01944712      -0.02727650      -0.04566438
H        7.22841808       7.55944222       7.98249799       69       0.05424166      -0.16334256      -0.21696763       0.02650344       0.04111626      -0.04075328
H        5.79408136       5.40737294       1.13271430       70      -0.25450724      -0.16374736      -0.32126446      -0.04474701       0.00301653       0.01934554
H        7.62251615       5.39927472       6.78517473       71      -0.21002962      -0.01873551      -0.20515994       0.02943853       0.00734725      -0.09876379
H       18.04704073      18.37971871       2.84166229       72      -0.24040345      -0.07264307      -0.16040020       0.02525588       0.03763927      -0.04134017
H       18.05179373      14.06367159       2.85030425       73      -0.05664232       0.20128192      -0.18988445       0.01923528      -0.02373052      -0.04511678
H       16.61265668      16.22553342       6.27807675       74       0.09490745       0.23082067       0.26180709      -0.04685448       0.00477149       0.02525807
H       18.44048957      16.22020033       1.64300158       75      -0.29410647      -0.13045112       0.07425278       0.03074716       0.00669278      -0.10270357
H       18.07121946       3.24859716       7.42354824       76       0.06444959       0.05458041      -0.07186666       0.02713121      -0.04817336       0.03875394
H       18.06148974       7.56680776       7.42519432       77      -0.04509574      -0.20924523       0.09397596       0.03208044       0.04735862       0.04079901
H       16.64560208       5.40472974       3.98713378       78       0.41561531       0.06639949       0.10224936      -0.04353575       0.00797517      -0.03045595
H       18.44069738       5.40854806       8.63548053       79      -0.12747845      -0.23040325       0.48077886       0.03187271      -0.00122233       0.09930033
H        2.14896774       9.00185718       0.26728354       80       0.18077307      -0.09890078      -0.11582500       0.04013214      -0.02346513      -0.04349131
H       19.47082021       9.00488618       0.27366213       81      -0.28212856       0.26816700       0.14864275      -0.03009873      -0.02419903      -0.04264982
H       21.63351654      10.42742904       3.70863626       82      -0.10755408       0.16490458       0.31880113       0.00412941       0.04647834       0.01867071
H       21.62673805       8.61722771       9.35368930       83       0.17349462       0.32172179      -0.37578067       0.00503551      -0.03057241      -0.10016445
H        2.16243202      12.65393709       9.99422329       84      -0.19095687       0.23135357      -0.43253652       0.04556345       0.03159846       0.03886071
H       19.48147006      12.66670266       9.99185704       85       0.09779469       0.04551583       0.09001851      -0.04922884       0.03032919       0.04142411
H        0.00168160      11.24069799       6.55554546       86       0.22208441       0.28214540      -0.45996016      -0.00441150      -0.04607387      -0.03286677
H        0.00370201      13.03726826       0.91512205       87       0.33290496      -0.21860143      -0.21508399      -0.00167506       0.03216809       0.09882891
H       12.97109370       8.97625092       4.85163862       88       0.16084206       0.28622848      -0.12100989       0.04010978      -0.02905888       0.03653216
H        8.65253048       8.97906371       4.84896372       89       0.14580941      -0.06819482      -0.15320047      -0.04480215      -0.03062538       0.03907847
H       10.81381612      10.39998834       1.41378383       90      -0.28841676       0.08418126       0.10229654       0.00388391       0.04334346      -0.02845027
H       10.81091420       8.60148710       6.06007297       91      -0.44244959      -0.00802871       0.13639150       0.00074931      -0.03396425       0.10667102
H       12.98007925      12.63497208       5.41593816       92      -0.29049356       0.02874910       0.45561326       0.03290157       0.02195475      -0.04427364
H        8.66497747      12.64103037       5.41172006       93      -0.08452018      -0.12875038      -0.22157951      -0.03741201       0.02173968      -0.04173468
H       10.81901187      11.20084927       8.84617979       94       0.06577837      -0.02878777      -0.19104239      -0.00717353      -0.04777313       0.02806023
H       10.82385721      13.02682870       4.20987006       95      -0.36641689      -0.04014493      -0.05093265      -0.00295919       0.02880328      -0.09537349
C       12.01613135      20.04351471       5.89340656       96      -0.17872797      -0.68779545      -0.23421336       0.03299306       0.04790359       0.01584586
C       12.02343300      20.55757625       7.20132636       97       0.07703318      -2.13954896       0.62650429      -0.15866140      -0.00371915      -0.03893127
C       13.32078303      20.73520011       7.91603719       98       0.38883726       0.85103650      -0.67661058       0.01517034      -0.04422330       0.01554838
C       10.81323421      20.84295099       7.84525541       99       0.91190036       0.35191308      -0.53240291      -0.00399414      -0.00506214      -0.05613154
C       10.81009915      19.81158238       5.23270799      100       0.02383198       0.75535894       0.82688801       0.00452933       0.06164360       0.09544170
C        9.60488524      20.04286560       5.89412672      101       0.22451382      -0.03545252       0.15579098      -0.02190501       0.05281848       0.01810706
C        9.60309917      20.55757625       7.20132636      102       0.55896244       0.53740278      -0.73433759       0.15704759       0.00014560      -0.02830398
C        8.30809984      20.73541645       7.91727176      103      -1.39164181      -0.91919153       0.39435505      -0.01811640      -0.04505042       0.01688845
C       12.02901493       1.62396317       4.37417022      104       0.05661307      -0.10384285       0.98057987       0.01033154      -0.06271388      -0.02675053
C       12.03101673       1.11336348       3.06532450      105      -0.28570874      -0.53606893       0.74759140      -0.15816311      -0.00700766       0.02306341
C       13.32406840       0.93747058       2.34814453      106       1.44907925       0.69912089       0.34599110       0.03238194       0.02999867       0.01444447
C       10.82109827       0.82669053       2.42263001      107       0.45075683      -0.12168098       0.25259455      -0.00183983       0.00816237       0.05619690
C       10.82315230       1.85265000       5.03641200      108      -0.39022452       0.82969035       0.09066365       0.00159692      -0.04621687      -0.08963255
C        9.61668649       1.62634318       4.37406734      109       0.03127902      -1.14890056       0.43142543      -0.01949046      -0.06279886      -0.02016154
C        9.61154812       1.11509440       3.06542738      110       0.87354870      -0.13794259       1.07680477       0.15550625      -0.00804084       0.02140978
C        8.31701075       0.93855239       2.34917334      111      -0.84341967       0.41115962      -0.83095615      -0.03980151       0.03271267       0.01189342
C        1.20063869      20.01922232       9.52189891      112       0.28448422       0.49373372       0.07690420       0.01084264       0.06552733      -0.02134926
C        1.20486900      20.52791768       8.21233303      113       0.06210999       1.28822935      -1.28435380      -0.14638963       0.00578788       0.02465321
C        2.49916706      20.70058864       7.49453578      114       1.07553160       0.55729952      -0.40308131       0.03201071      -0.03381755       0.01333469
C       21.63225149      20.81569353       7.57005007      115      -0.26464739      -0.29889600       0.57144311      -0.00091118      -0.00487703       0.05508282
C       21.63158099      19.79289377      10.18465509      116       1.01898019       1.47252210      -0.22174727      -0.00523874       0.03947243      -0.09195418
C       20.42526439      20.01814050       9.52159027      117      -0.43720614       1.54899648      -1.00210933      -0.00739432       0.05860696      -0.02139764
C       20.42257062      20.52813404       8.21264167      118      -0.08073674      -0.15226490       0.56893237       0.15035851       0.00708048       0.01706079
C       19.12971227      20.70058866       7.49330122      119      -1.12559560      -0.61723748      -0.68625198      -0.03007386      -0.03472052       0.01401630
C        1.21145609       1.59870793       0.74969020      120       0.41344060       1.45784114       0.08443070       0.01970652      -0.05339336       0.02279896
C        1.21285326       1.07724712       2.05452358      121       0.48237290      -0.76398136      -1.55777965      -0.16346542       0.00782303      -0.04025866
C        2.50722690       0.90003250       2.77211507      122      -0.09785867       0.60364989      -0.20365186       0.01695530       0.04134867       0.01939856
C        0.00165791       0.78860585       2.69474894      123      -0.69978184       0.56206828       1.24792455       0.00092860       0.00028846      -0.04597969
C        0.00665267       1.83369106       0.08837435      124       1.41180841      -0.38207407      -0.45940120      -0.00003071      -0.05841789       0.09540598
C       20.43694691       1.59978980       0.74691243      125       0.18788523       0.45218724      -1.82767821      -0.03260403      -0.04894583       0.01898779
C       20.42904005       1.07876171       2.05226021      126      -0.29078405      -0.08965111      -0.70129731       0.15729823       0.00428225      -0.03823523
C       19.13236265       0.90089802       2.76841137      127       0.60049583       1.18521291      -0.24737852      -0.01983607       0.03839980       0.02166856
C        3.81057960      17.44003808       3.32221711      128      -0.32255985       0.24528432       0.06745758       0.05509764       0.02305116       0.01870766
C        4.32881098      17.44174757       4.62807929      129      -0.26532185       0.50129924       0.42187343      -0.00472332      -0.17181260      -0.03607417
C        4.50605508      18.73603062       5.34536214      130       0.36992722      -0.73925296       0.93530096      -0.04794457       0.01564321       0.00772103
C        4.61591045      16.23074272       5.26923057      131      -0.63932365       0.57007923       0.02160031      -0.00501524      -0.01045754      -0.05239225
C        3.57728278      16.23554555       2.65997533      132      -0.20271751       0.09745833       0.39767165       0.05611278      -0.00294640       0.09194740
C        3.80963989      15.02865135       3.31892493      133      -0.28094349      -0.96032660       0.22625570       0.04726132      -0.02493999       0.01629806
C        4.32743993      15.02105714       4.62530152      134       0.13971711      -0.11159967       0.48269169      -0.00200201       0.15858013      -0.03533445
C        4.50528572      13.72372150       5.33949795      135       1.50336827       0.18328751       0.41363660      -0.04108489      -0.01879346       0.01582317
C        3.78815672       4.20775058       6.94669712      136       0.04929171      -0.46285410      -0.37341408       0.05990783      -0.00906667      -0.01602849
C        4.29834048       4.20257929       5.63764564      137       0.30545558      -0.00396492      -0.16074761       0.00313370       0.16124415       0.02035798
C        4.47183498       2.90786351       4.92077431      138      -0.07756831       0.15371155      -0.96435718      -0.04218588      -0.04406452       0.02902347
C        4.58592438       5.41250235       4.99464251      139       0.10645051      -0.56779488       0.28385156      -0.00416050      -0.00695972       0.06215257
C        3.56123061       5.41440675       7.60904178      140      -0.40269686      -0.37719643      -0.83455312       0.04716874       0.00170700      -0.09369629
C        3.78801431       6.62043556       6.94597696      141      -0.58317412      -0.05272762       0.51140070       0.06378994       0.00442429      -0.03123916
C        4.29862972       6.62262068       5.63692547      142       0.41225412       1.34985775       0.28089561       0.00542207      -0.15096126       0.01823830
C        4.47238846       7.91584547       4.91779078      143       1.13609192      -0.11796594       1.35294210      -0.04467723       0.03619993       0.02503501
C       14.60663787      17.43443749       1.80390669      144      -0.44409382       0.06594758       0.49163981       0.06448214       0.01393564      -0.02383593
C       15.11530580      17.43748808       0.49434080      145       0.52248607       0.03684782       0.61874655       0.00409453      -0.15191975       0.02161938
C       15.28880058      18.73076045      10.06469643      146      -0.61209848       0.01061289       0.29475927      -0.03525316       0.04063172       0.01805973
C       15.40147093      16.22763373      10.13928479      147       0.76522614       1.09885051       0.43294988      -0.00764852      -0.00548171       0.06174715
C       14.38007051      16.22862504       2.46697151      148       0.39570233      -0.56897288      -0.82775960       0.04443291       0.00420548      -0.08908747
C       14.60591469      15.02240161       1.80442109      149      -1.08650749      -0.51313149       0.92021859       0.06230020      -0.01575809      -0.01953224
C       15.11458369      15.01831215       0.49495809      150       0.01223067      -0.03860126      -0.85840931       0.00689936       0.16221962       0.02009833
C       15.28867955      13.72450943      10.06603388      151       0.40248802       0.60948578       0.31015044      -0.03964678      -0.04526365       0.01962513
C       14.62862060       4.20469658       8.46387585      152      -1.20115285      -0.80711444       0.54101010       0.04835701      -0.02811559       0.01319463
C       15.14923316       4.19904968       9.76912076      153       0.11096539       0.37002803      -0.08005274      -0.00284216       0.15373557      -0.03180771
C       15.32734279       2.90296459       0.19742768      154      -0.68548032       0.06559112       0.32884571      -0.04682321      -0.01957467       0.01254990
C       15.43775119       5.40933678       0.12355948      155       0.21910857      -0.63469939      -0.52821463      -0.00664037       0.00493905      -0.05166042
C       14.39323438       5.41094169       7.80492625      156      -0.22936988      -0.73995572       0.61698561       0.06137943       0.00313777       0.10141013
C       14.62674743       6.61629969       8.46624210      157      -1.07187447      -0.41516099       0.70975010       0.05099684       0.02378776       0.01553211
C       15.14800768       6.62017286       9.77107548      158       0.45004886      -0.75434369       0.69735011      -0.00353892      -0.16883753      -0.03463428
C       15.32551557       7.91570650       0.19989681      159       0.05631608      -0.23989218       0.04317842      -0.04381814       0.02183510       0.01329333
C        7.02497405      17.43054295       1.80236348      160      -0.31442369      -0.75797847      -0.84667449      -0.05855125       0.02112662      -0.01965800
C        6.51647849      17.43445900       0.49290048      161      -0.19609628      -0.14749820       0.46889218      -0.00666120      -0.14906057       0.01876437
C        6.34377841      18.72881317      10.06449067      162       0.09173885      -0.40141546      -0.30790975       0.03497166       0.04301179       0.01925131
C        6.22904222      16.22482101      10.13784447      163      -0.41711710      -0.18198311      -0.00732283       0.00800184      -0.00843129       0.05861558
C        7.25257089      16.22473051       2.46501678      164      -0.61186506       0.34444054      -0.45150559      -0.04614772      -0.00693298      -0.09678129
C        7.02771280      15.01850709       1.80154044      165       0.19145210       0.61493797      -0.47984700      -0.06537802      -0.00403170      -0.02358981
C        6.51705460      15.01528308       0.49259183      166      -0.31351907      -1.30540083       0.27951163      -0.00385622       0.15900599       0.02312510
C        6.34409017      13.72191312      10.06212442      167       0.86361750      -0.94806514      -2.02660902       0.03993968      -0.03732266       0.01894215
C        7.00995784       4.19712377       8.46644786      168      -0.63953595       0.82730652      -1.34055240      -0.04996976      -0.02266327       0.02181820
C        6.48787455       4.19558782       9.77086972      169      -0.50755023      -0.19005631       0.56108978       0.00251427       0.16475072      -0.02877424
C        6.30940341       2.90101726       0.20010257      170       0.93795476      -0.62751012      -0.84943867       0.05177914      -0.01669005       0.00966097
C        6.19824720       5.40695677       0.12314796      171       1.23584628       0.66091208      -0.02606786       0.00207845      -0.00043718      -0.05206967
C        7.24323290       5.40185438       7.80441185      172       1.07230330       0.13350656       0.25387935      -0.05893725       0.00461420       0.09469991
C        7.00765178       6.60894335       8.46222976      173      -0.50115988       0.27909221       0.57179536      -0.05236278       0.02250497       0.01366472
C        6.48751451       6.61649471       9.76778331      174      -0.68359579       0.36603563      -0.23504745       0.00585352      -0.15984902      -0.03834323
C        6.30909066       7.91375931       0.19444414      175      -0.79061284      -1.04801686      -0.19653624       0.04731551       0.02436406       0.00787106
C       17.82562536      17.42878713       3.32046814      176       0.20238643      -0.28164886      -0.84288961      -0.04927270       0.03298965       0.01252097
C       17.30548815      17.43590576       4.62591880      177       0.84509933      -1.09673628       0.83449312       0.00082594      -0.15922031      -0.03550908