304
Lattice="21.63717 0.0 0.0 -0.003217390455063572 21.636489760783718 0.0 0.00016878672533660936 -0.0001687616282665579 10.28804999723128" Properties=species:S:1:pos:R:3:spacegroup_kinds:I:1:momenta:R:3:forces:R:3 spacegroup="P 1" unit_cell=conventional energy=-2140.0914913008864 free_energy=-2140.0914913008864 stress="-0.0009272489254588074 -9.4000957621607e-07 6.869184262124497e-06 -9.4000957621607e-07 -0.0009021047037729485 9.420468162290032e-06 6.869184262124497e-06 9.420468162290032e-06 -0.0018988135186300832" pbc="T T T"
Al      14.71092529      21.62740220       0.01460903        0       0.18481771      -0.31365915      -0.18666558       0.22961975       0.00379538       0.00846414
Al       6.92240957      21.62761853       0.01625512        1      -0.28785981       0.02758579       0.20508021      -0.23354593      -0.00553534       0.00341653
Al      16.23323439      20.12094323       7.72930908        2       0.19464508      -1.07198542       0.63418180      -0.00305144       0.23587476       0.00610626
Al       5.39842144      20.12159230       7.73085229        3       0.18062856      -0.34804578      -0.79792346      -0.00944119       0.23316025       0.01696773
Al      16.22120349       1.51494460       2.58559273        4      -0.41399430      -0.79195789       0.06495287      -0.00447281      -0.23079460       0.01034179
Al       5.41624990       1.51516093       2.58744457        5       0.59615677      -0.66483829      -0.62772240       0.01525163      -0.23637171       0.00305969
Al       3.89304290       0.00921905       5.16007436        6       0.19469949       0.51325704       0.25041698       0.22743817       0.00631847       0.00362874
Al      17.74364468       0.00792090       5.15729658        7      -0.09987418      -0.06075025       0.30200882      -0.22699415       0.00080844       0.00801340
Al       5.40087772      12.33310520       7.72375354        8      -0.04763451      -0.55302230       0.18482223      -0.00413031      -0.22444907       0.01305453
Al       3.89381627      10.81318399       5.15132951        9      -0.47103631      -0.28854888      -1.01344581       0.22987666      -0.00475906       0.00732162
Al       5.41444209       9.30624468       2.57859685       10      -0.67695360       1.04196684       0.32212944      -0.00068885       0.22149864       0.01853057
Al      16.23569056      12.33418690       7.73116093       11      -0.04526061      -0.45285740       0.10758286      -0.00479726      -0.23509654       0.02282161
Al      14.70993489      10.82689923       0.01512343       12       0.72460528       0.09551446      -0.24613436       0.23326508       0.00396750       0.01641253
Al      16.21615080       9.30256632       2.58795898       13       0.74890107      -0.19695573       0.53011480      -0.00185860       0.23159662       0.00590369
Al       6.92293393      10.82495208       0.00668723       14       0.37764135      -0.68188363      -0.84230110      -0.22923842       0.00183152       0.01674774
Al      17.74117314      10.80864019       5.15955995       15       0.12208345      -0.48579506       0.42814594      -0.21959132       0.00062272       0.01771248
H       15.58526682      10.76102569       6.02632817       16      -0.18781749       0.16452944      -0.11924119       0.06714768      -0.00230601       0.00842872
H       16.17083879      11.46079194       3.45555023       17       0.00302623       0.17955155       0.14471882      -0.00732651      -0.06427121       0.00160959
H        5.34745561       0.64397712       8.60667399       18       0.09294047       0.04845745      -0.25627456      -0.00636815      -0.07172509       0.00120762
H        6.05690245      10.78396078       6.00173973       19      -0.21472947       0.01192760      -0.03091573      -0.07806074      -0.00872288       0.01039192
H        5.43447245      11.47420716       3.41954206       20       0.01660700       0.07969093      -0.07071052       0.00944713      -0.08454565       0.01253403
H       16.27756922      10.17463469       8.59494561       21      -0.17871392      -0.09552664       0.12453015       0.00398289       0.08496941       0.01233612
H       16.86976577      10.86431622       0.87695338       22      -0.04410517      -0.00956225       0.06424502      -0.07147359       0.01088505       0.00666478
H        5.36334820      10.17095676       8.57807321       23       0.08847757       0.11407642       0.09339332      -0.00280654       0.07163175       0.00538527
H       16.18521667      20.99015135       3.44227865       24       0.00629665      -0.06402959       0.07282642      -0.00977238       0.07361119       0.00489437
H       16.87444302      21.60618449       0.86501924       25       0.07221601       0.02335590      -0.01544711      -0.08032473      -0.01968663       0.00712118
H       16.26535458       0.64592476       8.58486332       26       0.04880902       0.03134535      -0.08594907       0.01364084      -0.07033093       0.00260651
H       15.58210090       0.03841432       6.01285082       27      -0.18592351      -0.16618046      -0.07392585       0.07178547       0.01389243       0.00306619
H        4.76585778      21.55663645       0.89372290       28      -0.03251230       0.09423605      -0.10969863       0.05751480       0.01326244      -0.00057202
H        6.05049030       0.07065236       6.03270676       29       0.16536654       0.07076744       0.03874525      -0.07209744      -0.00741445       0.00553072
H        5.46919184      20.99253102       3.46326627       30       0.01670148       0.14238955       0.05210114       0.00596435       0.07439076       0.00099670
H        4.75965897      10.85566204       0.85174766       31       0.05278465       0.00062048      -0.00243199       0.07558511       0.00416694       0.01188600
H       12.96689340      19.82391220       5.41408631       32      -0.02170172      -0.02019230       0.12047076       0.04718479      -0.02602283      -0.04489240
H        8.65200908      19.82347941       5.41809865       33      -0.08783275       0.01703424      -0.01609179      -0.02908619      -0.02262122      -0.04076727
H       10.81016248      21.24061307       8.85739376       34      -0.01652609       0.22406760      -0.04436650       0.01142893       0.04797244       0.01758900
H       10.80905610      19.43793695       4.21151615       35      -0.03172382      -0.10547994      -0.19811049       0.00695334      -0.03163721      -0.10213207
H       12.98275688       1.84118572       4.84988965       36       0.05711632      -0.04395929      -0.04631382       0.03873340       0.03008777       0.03701270
H        8.66419350       1.84551300       4.85112422       37      -0.09327771       0.01848157       0.00033224      -0.04594329       0.03179208       0.03759849
H       10.82157381       0.42729752       1.41131470       38       0.00961719       0.03365734       0.01859962      -0.00223817      -0.04729201      -0.02729165
H       10.82397988       2.22045354       6.05976433       39       0.07022880       0.07784124       0.07831655      -0.00372435       0.03354461       0.10519271
H        2.15336339      19.80220050       9.99916155       40       0.03873251      -0.02869896       0.08165337       0.04890128      -0.03454016       0.03869166
H       19.47197126      19.79765688       9.99669242       41       0.05962931      -0.01829274       0.11067333      -0.03988486      -0.02699304       0.03821492
H       21.63066085      21.21555244       6.55914628       42       0.03320869       0.05726901      -0.07389367       0.00561664       0.04733833      -0.03580517
H       21.63126725      19.42565814       0.92016319       43      -0.18791934       0.04736846      -0.15204610       0.00163669      -0.03083395       0.10394500
H        2.16453251       1.82157155       0.27592550       44      -0.02041556      -0.02517516      -0.01843899       0.03192527       0.02173710      -0.04400950
H       19.48681759       1.82395169       0.26800370       45       0.09284800       0.13914839       0.04087360      -0.04300327       0.02286500      -0.04056970
H        0.00195097       0.38420330       3.70400664       46       0.12020707      -0.01212228       0.16865687      -0.00558847      -0.04710288       0.02648191
H        0.00912836       2.21325941       9.35729011       47       0.11636864      -0.00069476      -0.08293770      -0.00671578       0.02831917      -0.09710264
H        3.58994730      18.39334959       2.84834952       48      -0.02501925       0.02379394       0.02633627      -0.02657371       0.03637845      -0.05023945
H        3.58691049      14.07838457       2.83981044       49       0.35711213      -0.00648341       0.08285211      -0.02361242      -0.04358033      -0.04249724
H        5.01708020      16.23050978       6.27982572       50      -0.15014176       0.03766265       0.00008501       0.04859492      -0.00470226       0.02350539
H        3.20034619      16.23794230       1.63981229       51       0.02660920       0.00703865       0.04531667      -0.02854394      -0.00536775      -0.09729934
H        3.56955439       3.25530447       7.42395976       52       0.11858012       0.15890254       0.03769103      -0.03133813      -0.04751270       0.03843528
H        3.56869578       7.57394787       7.42118199       53      -0.09100400      -0.12564135       0.09306946      -0.02852055       0.03993405       0.03683629
H        4.98619544       5.41251893       3.98373872       54       0.01891625      -0.21288358      -0.19527996       0.04547896      -0.00039135      -0.03131962
H        3.19384810       5.41547178       8.63280563       55      -0.20201228      -0.22710248       0.06032306      -0.03092252      -0.00501540       0.09693822
H       14.38969948      18.38773342       2.28014052       56      -0.02515052      -0.20986055      -0.11074925      -0.03231893       0.04648630       0.03937718
H       14.38817788      14.06973913       2.28168373       57      -0.11779555      -0.02564431       0.07007416      -0.03111343      -0.04700871       0.03655773
H       15.79892918      16.22743396       9.12735220       58       0.00863358       0.05815689      -0.05303144       0.04916512      -0.00068642      -0.03157038
H       14.01376992      16.22925734       3.49083824       59      -0.01089343      -0.13725426       0.08246847      -0.03332928      -0.00149094       0.10588880
H       14.40632409       3.25356433       7.98579017       60       0.17922416      -0.03579889      -0.00639884      -0.02224599      -0.03680905      -0.03888394
H       14.40308607       7.56852939       7.99144860       61      -0.01495608      -0.03160803      -0.04730293      -0.02450177       0.03797912      -0.04678558
H       15.84108463       5.40910385       1.13312583       62       0.01607945      -0.07450665       0.02270533       0.05056392      -0.00185581       0.02905818
H       14.01391791       5.41204024       6.78568914       63      -0.00732731       0.02652559       0.00661422      -0.02898318      -0.00200208      -0.09800492
H        7.24186089      18.38405524       2.27849443       64       0.01406212      -0.03967884       0.01461921       0.03208097       0.04170157       0.03994828
H        7.24769595      14.06562827       2.27715699       65      -0.09284644       0.04215025       0.11449450       0.03040853      -0.04837577       0.03948866
H        5.82938733      16.22332304       9.12652915       66      -0.22865748       0.05831734      -0.03897121      -0.04400194       0.00605121      -0.02448346
H        7.61912124      16.22536281       3.48878063       67      -0.03923783      -0.09750180      -0.03772315       0.03388479      -0.00253917       0.10576358
H        7.23533479       3.24382778       7.99402061       68       0.05420568       0.07375259      -0.04337737       0.01944712      -0.02727650      -0.04566438
H        7.22841808       7.55944222       7.98249799       69       0.01166673      -0.00233193       0.06574336       0.02650344       0.04111626      -0.04075328
H        5.79408136       5.40737294       1.13271430       70      -0.07426858      -0.11153917      -0.16605023      -0.04474701       0.00301653       0.01934554
H        7.62251615       5.39927472       6.78517473       71       0.05247621      -0.10872883       0.02553617       0.02943853       0.00734725      -0.09876379
H       18.04704073      18.37971871       2.84166229       72       0.08110010      -0.02760083       0.10874206       0.02525588       0.03763927      -0.04134017
H       18.05179373      14.06367159       2.85030425       73       0.17779917       0.00721913      -0.01719565       0.01923528      -0.02373052      -0.04511678
H       16.61265668      16.22553342       6.27807675       74       0.07098701      -0.12786314      -0.01220890      -0.04685448       0.00477149       0.02525807
H       18.44048957      16.22020033       1.64300158       75       0.22207606      -0.03222270      -0.01428563       0.03074716       0.00669278      -0.10270357
H       18.07121946       3.24859716       7.42354824       76       0.02233458      -0.02075534       0.01320618       0.02713121      -0.04817336       0.03875394
H       18.06148974       7.56680776       7.42519432       77      -0.18048331      -0.05217442      -0.00040055       0.03208044       0.04735862       0.04079901
H       16.64560208       5.40472974       3.98713378       78      -0.01686897       0.03527560       0.04280409      -0.04353575       0.00797517      -0.03045595
H       18.44069738       5.40854806       8.63548053       79      -0.05607122      -0.10977594      -0.04690183       0.03187271      -0.00122233       0.09930033
H        2.14896774       9.00185718       0.26728354       80      -0.13121652       0.09711765       0.03641129       0.04013214      -0.02346513      -0.04349131
H       19.47082021       9.00488618       0.27366213       81       0.00675222       0.06055566      -0.01422657      -0.03009873      -0.02419903      -0.04264982
H       21.63351654      10.42742904       3.70863626       82       0.10825790       0.09279505       0.10025768       0.00412941       0.04647834       0.01867071
H       21.62673805       8.61722771       9.35368930       83       0.03316497      -0.00458352      -0.01089935       0.00503551      -0.03057241      -0.10016445
H        2.16243202      12.65393709       9.99422329       84       0.02365164      -0.01055305      -0.23710548       0.04556345       0.03159846       0.03886071
H       19.48147006      12.66670266       9.99185704       85      -0.06073023      -0.01244484       0.01130338      -0.04922884       0.03032919       0.04142411
H        0.00168160      11.24069799       6.55554546       86       0.00287291      -0.02622147       0.14556959      -0.00441150      -0.04607387      -0.03286677
H        0.00370201      13.03726826       0.91512205       87       0.12888244      -0.04162957       0.06396827      -0.00167506       0.03216809       0.09882891
H       12.97109370       8.97625092       4.85163862       88      -0.03172558       0.01760395       0.14162614       0.04010978      -0.02905888       0.03653216
H        8.65253048       8.97906371       4.84896372       89       0.03561889      -0.01254266      -0.09347320      -0.04480215      -0.03062538       0.03907847
H       10.81381612      10.39998834       1.41378383       90       0.01358501      -0.10207350      -0.09778930       0.00388391       0.04334346      -0.02845027
H       10.81091420       8.60148710       6.06007297       91       0.08883803      -0.10636063      -0.05735045       0.00074931      -0.03396425       0.10667102
H       12.98007925      12.63497208       5.41593816       92      -0.00279014       0.04630326       0.04904590       0.03290157       0.02195475      -0.04427364
H        8.66497747      12.64103037       5.41172006       93      -0.10828986      -0.07555129      -0.03009027      -0.03741201       0.02173968      -0.04173468
H       10.81901187      11.20084927       8.84617979       94      -0.01837669      -0.02665900      -0.05804288      -0.00717353      -0.04777313       0.02806023
H       10.82385721      13.02682870       4.20987006       95      -0.14950693       0.22122867       0.04042665      -0.00295919       0.02880328      -0.09537349
C       12.01613135      20.04351471       5.89340656       96       0.06179117      -0.25526137       0.21788878       0.03299306       0.04790359       0.01584586
C       12.02343300      20.55757625       7.20132636       97      -0.11114682       0.28312425      -0.74849583      -0.15866140      -0.00371915      -0.03893127
C       13.32078303      20.73520011       7.91603719       98       0.05700476       0.15639145      -0.25410424       0.01517034      -0.04422330       0.01554838
C       10.81323421      20.84295099       7.84525541       99      -0.03475842      -0.29591160      -0.34515208      -0.00399414      -0.00506214      -0.05613154
C       10.81009915      19.81158238       5.23270799      100       0.06220087       0.38112644       0.17891441       0.00452933       0.06164360       0.09544170
C        9.60488524      20.04286560       5.89412672      101       0.06598708      -0.39336202      -0.31251318      -0.02190501       0.05281848       0.01810706
C        9.60309917      20.55757625       7.20132636      102      -0.35081989      -0.01691764       0.45921438       0.15704759       0.00014560      -0.02830398
C        8.30809984      20.73541645       7.91727176      103      -0.35548262      -0.02732171      -0.65988407      -0.01811640      -0.04505042       0.01688845
C       12.02901493       1.62396317       4.37417022      104       0.30183611       0.38329721       0.11730347       0.01033154      -0.06271388      -0.02675053
C       12.03101673       1.11336348       3.06532450      105       0.30041922       0.34451713      -0.13455201      -0.15816311      -0.00700766       0.02306341
C       13.32406840       0.93747058       2.34814453      106      -0.32974480       0.35605416      -0.27267782       0.03238194       0.02999867       0.01444447
C       10.82109827       0.82669053       2.42263001      107       0.04359261       0.33911820       0.35447169      -0.00183983       0.00816237       0.05619690
C       10.82315230       1.85265000       5.03641200      108      -0.01176164       0.20233079       0.14117612       0.00159692      -0.04621687      -0.08963255
C        9.61668649       1.62634318       4.37406734      109      -0.08442271       0.18751217      -0.05809113      -0.01949046      -0.06279886      -0.02016154
C        9.61154812       1.11509440       3.06542738      110       0.28201532      -0.03207874      -0.60466164       0.15550625      -0.00804084       0.02140978
C        8.31701075       0.93855239       2.34917334      111      -0.05167624       0.19667357       0.22883692      -0.03980151       0.03271267       0.01189342
C        1.20063869      20.01922232       9.52189891      112       0.08944273       0.04297942       0.12923310       0.01084264       0.06552733      -0.02134926
C        1.20486900      20.52791768       8.21233303      113      -0.13655200      -0.84979744       0.55317442      -0.14638963       0.00578788       0.02465321
C        2.49916706      20.70058864       7.49453578      114      -0.11657321       0.17923692       0.75532385       0.03201071      -0.03381755       0.01333469
C       21.63225149      20.81569353       7.57005007      115       0.46930363       0.37491666      -0.61327761      -0.00091118      -0.00487703       0.05508282
C       21.63158099      19.79289377      10.18465509      116       0.04112017       0.22596741      -0.16548409      -0.00523874       0.03947243      -0.09195418
C       20.42526439      20.01814050       9.52159027      117      -0.26369477      -0.53803798       0.41911104      -0.00739432       0.05860696      -0.02139764
C       20.42257062      20.52813404       8.21264167      118       0.08563869       0.03726586       0.64759420       0.15035851       0.00708048       0.01706079
C       19.12971227      20.70058866       7.49330122      119       0.02160395       0.27226293      -0.72128556      -0.03007386      -0.03472052       0.01401630
C        1.21145609       1.59870793       0.74969020      120      -0.17599585      -0.43368995      -0.05686156       0.01970652      -0.05339336       0.02279896
C        1.21285326       1.07724712       2.05452358      121       0.09007381      -0.18186351       0.28632745      -0.16346542       0.00782303      -0.04025866
C        2.50722690       0.90003250       2.77211507      122       0.30101313       0.28154962      -0.09019126       0.01695530       0.04134867       0.01939856
C        0.00165791       0.78860585       2.69474894      123      -0.41916351       0.11371577      -0.33038331       0.00092860       0.00028846      -0.04597969
C        0.00665267       1.83369106       0.08837435      124       0.16064271       0.33401803       0.54764926      -0.00003071      -0.05841789       0.09540598
C       20.43694691       1.59978980       0.74691243      125      -0.17487885       0.16031073      -0.25024772      -0.03260403      -0.04894583       0.01898779
C       20.42904005       1.07876171       2.05226021      126      -0.14419994       0.32420084       0.15283658       0.15729823       0.00428225      -0.03823523
C       19.13236265       0.90089802       2.76841137      127      -0.13576759       0.08563251      -0.51762421      -0.01983607       0.03839980       0.02166856
C        3.81057960      17.44003808       3.32221711      128       0.25978689       0.19860827      -0.13407969       0.05509764       0.02305116       0.01870766
C        4.32881098      17.44174757       4.62807929      129       0.13835896       0.03705569       0.46114875      -0.00472332      -0.17181260      -0.03607417
C        4.50605508      18.73603062       5.34536214      130       0.50765403      -0.49755422       0.42517362      -0.04794457       0.01564321       0.00772103
C        4.61591045      16.23074272       5.26923057      131       0.29389468       0.08974512       0.04296978      -0.00501524      -0.01045754      -0.05239225
C        3.57728278      16.23554555       2.65997533      132       0.41422324       0.20580973      -0.58639823       0.05611278      -0.00294640       0.09194740
C        3.80963989      15.02865135       3.31892493      133      -0.04870787       0.12766156      -0.12247089       0.04726132      -0.02493999       0.01629806
C        4.32743993      15.02105714       4.62530152      134      -0.11032464       0.36602705      -0.23456580      -0.00200201       0.15858013      -0.03533445
C        4.50528572      13.72372150       5.33949795      135      -0.35691259      -0.22379163       0.06423613      -0.04108489      -0.01879346       0.01582317
C        3.78815672       4.20775058       6.94669712      136      -1.12362234      -0.03464661       0.19090631       0.05990783      -0.00906667      -0.01602849
C        4.29834048       4.20257929       5.63764564      137      -0.20222991      -0.39065036      -0.23677790       0.00313370       0.16124415       0.02035798
C        4.47183498       2.90786351       4.92077431      138      -0.36834451      -0.56795755       0.06314026      -0.04218588      -0.04406452       0.02902347
C        4.58592438       5.41250235       4.99464251      139       0.07680479      -0.02755688      -0.42329271      -0.00416050      -0.00695972       0.06215257
C        3.56123061       5.41440675       7.60904178      140       0.07437970      -0.21080853       0.28367918       0.04716874       0.00170700      -0.09369629
C        3.78801431       6.62043556       6.94597696      141      -0.08918757       0.08785336       0.46314670       0.06378994       0.00442429      -0.03123916
C        4.29862972       6.62262068       5.63692547      142      -0.24446247       0.44830346       0.59454305       0.00542207      -0.15096126       0.01823830
C        4.47238846       7.91584547       4.91779078      143       0.04200813       0.00476461       0.07599255      -0.04467723       0.03619993       0.02503501
C       14.60663787      17.43443749       1.80390669      144       0.35627598       0.29529872       0.12578579       0.06448214       0.01393564      -0.02383593
C       15.11530580      17.43748808       0.49434080      145      -0.11597101       0.24837266       0.15352134       0.00409453      -0.15191975       0.02161938
C       15.28880058      18.73076045      10.06469643      146      -0.04977173       0.00929356      -0.75154635      -0.03525316       0.04063172       0.01805973
C       15.40147093      16.22763373      10.13928479      147      -0.53634854       0.83065529      -0.03601833      -0.00764852      -0.00548171       0.06174715
C       14.38007051      16.22862504       2.46697151      148       0.48133581      -0.57112439       0.03195047       0.04443291       0.00420548      -0.08908747
C       14.60591469      15.02240161       1.80442109      149       0.03077739      -0.30426622       0.11805354       0.06230020      -0.01575809      -0.01953224
C       15.11458369      15.01831215       0.49495809      150       0.01935819       0.12738962       0.05344350       0.00689936       0.16221962       0.02009833
C       15.28867955      13.72450943      10.06603388      151       0.00951611      -0.24387793       0.22599132      -0.03964678      -0.04526365       0.01962513
C       14.62862060       4.20469658       8.46387585      152       0.44724092       0.63853006      -0.20517545       0.04835701      -0.02811559       0.01319463
C       15.14923316       4.19904968       9.76912076      153      -0.49179284      -0.27240340      -0.00712997      -0.00284216       0.15373557      -0.03180771
C       15.32734279       2.90296459       0.19742768      154      -0.26326806      -0.83603166       0.46733893      -0.04682321      -0.01957467       0.01254990
C       15.43775119       5.40933678       0.12355948      155      -0.04498651      -0.06916649       0.39507449      -0.00664037       0.00493905      -0.05166042
C       14.39323438       5.41094169       7.80492625      156      -0.16234057      -0.77225298       0.23182874       0.06137943       0.00313777       0.10141013
C       14.62674743       6.61629969       8.46624210      157      -0.20664826      -0.54714050       0.21438017       0.05099684       0.02378776       0.01553211
C       15.14800768       6.62017286       9.77107548      158       0.34435776       0.05145965       0.28038472      -0.00353892      -0.16883753      -0.03463428
C       15.32551557       7.91570650       0.19989681      159       0.39083526       0.18204863      -0.18495467      -0.04381814       0.02183510       0.01329333
C        7.02497405      17.43054295       1.80236348      160      -0.16748955       0.50306182       0.41508997      -0.05855125       0.02112662      -0.01965800
C        6.51647849      17.43445900       0.49290048      161       0.29099514      -0.14173863      -0.15934411      -0.00666120      -0.14906057       0.01876437
C        6.34377841      18.72881317      10.06449067      162      -0.31273653       0.33963531      -0.04975512       0.03497166       0.04301179       0.01925131
C        6.22904222      16.22482101      10.13784447      163       0.47358173       0.22111599       0.02479581       0.00800184      -0.00843129       0.05861558
C        7.25257089      16.22473051       2.46501678      164      -0.51775379       0.13895568       0.27668373      -0.04614772      -0.00693298      -0.09678129
C        7.02771280      15.01850709       1.80154044      165       0.18417094      -0.13684553       0.46977818      -0.06537802      -0.00403170      -0.02358981
C        6.51705460      15.01528308       0.49259183      166       0.04114328      -0.43241984      -0.18879877      -0.00385622       0.15900599       0.02312510
C        6.34409017      13.72191312      10.06212442      167       0.02741629       0.38924727       0.29098158       0.03993968      -0.03732266       0.01894215
C        7.00995784       4.19712377       8.46644786      168      -0.02730980      -0.21935055      -0.11509629      -0.04996976      -0.02266327       0.02181820
C        6.48787455       4.19558782       9.77086972      169       0.07219506       0.83009647       0.06069639       0.00251427       0.16475072      -0.02877424
C        6.30940341       2.90101726       0.20010257      170      -0.08036476      -0.02909792       0.36191423       0.05177914      -0.01669005       0.00966097
C        6.19824720       5.40695677       0.12314796      171       0.00917662      -0.03148563       0.15055687       0.00207845      -0.00043718      -0.05206967
C        7.24323290       5.40185438       7.80441185      172       0.05885433       0.10935404       0.23446057      -0.05893725       0.00461420       0.09469991
C        7.00765178       6.60894335       8.46222976      173       0.40219871       0.20702360      -0.30372730      -0.05236278       0.02250497       0.01366472
C        6.48751451       6.61649471       9.76778331      174      -0.00460950       0.28048884       0.09060634       0.00585352      -0.15984902      -0.03834323
C        6.30909066       7.91375931       0.19444414      175      -0.02049340      -0.19065132       0.24599414       0.04731551       0.02436406       0.00787106
C       17.82562536      17.42878713       3.32046814      176      -0.67680537      -0.14334239      -0.27792437      -0.04927270       0.03298965       0.01252097
C       17.30548815      17.43590576       4.62591880      177       0.14928171      -0.30979137       0.32385268       0.00082594      -0.15922031      -0.03550908