304
Lattice="21.63717 0.0 0.0 -0.003217390455063572 21.636489760783718 0.0 0.00016878672533660936 -0.0001687616282665579 10.28804999723128" Properties=species:S:1:pos:R:3:spacegroup_kinds:I:1:momenta:R:3:forces:R:3 spacegroup="P 1" unit_cell=conventional energy=-2140.0914913008864 free_energy=-2140.0914913008864 stress="-0.0009272489254588048 -9.400095762183347e-07 6.869184262124119e-06 -9.400095762183347e-07 -0.0009021047037729771 9.420468162291397e-06 6.869184262124119e-06 9.420468162291397e-06 -0.0018988135186301027" pbc="T T T"
Al      14.71092529      21.62740220       0.01460903        0       0.90149214       0.76114673      -0.69908017       0.22961975       0.00379538       0.00846414
Al       6.92240957      21.62761853       0.01625512        1      -1.42619641       0.87174721       0.55124579      -0.23354593      -0.00553534       0.00341653
Al      16.23323439      20.12094323       7.72930908        2       1.11884732      -0.14950417      -0.49431323      -0.00305144       0.23587476       0.00610626
Al       5.39842144      20.12159230       7.73085229        3       0.64333340       0.65094287       1.38174464      -0.00944119       0.23316025       0.01696773
Al      16.22120349       1.51494460       2.58559273        4      -0.43776976       0.99610259       1.22829816      -0.00447281      -0.23079460       0.01034179
Al       5.41624990       1.51516093       2.58744457        5       0.02397703      -0.39183670       0.75508418       0.01525163      -0.23637171       0.00305969
Al       3.89304290       0.00921905       5.16007436        6       1.12352583       0.07932810      -1.37494104       0.22743817       0.00631847       0.00362874
Al      17.74364468       0.00792090       5.15729658        7       0.04312255       0.96380613       1.21680750      -0.22699415       0.00080844       0.00801340
Al       5.40087772      12.33310520       7.72375354        8      -0.01003044       1.26940469      -1.36409615      -0.00413031      -0.22444907       0.01305453
Al       3.89381627      10.81318399       5.15132951        9      -0.36213342      -0.29332114       0.12913363       0.22987666      -0.00475906       0.00732162
Al       5.41444209       9.30624468       2.57859685       10      -0.49575817      -0.08328469       0.76001767      -0.00068885       0.22149864       0.01853057
Al      16.23569056      12.33418690       7.73116093       11      -0.24233951      -2.01549296       1.75378033      -0.00479726      -0.23509654       0.02282161
Al      14.70993489      10.82689923       0.01512343       12       1.10600362       0.59500045      -0.69122143       0.23326508       0.00396750       0.01641253
Al      16.21615080       9.30256632       2.58795898       13      -0.37348323       1.53548860       0.80435381      -0.00185860       0.23159662       0.00590369
Al       6.92293393      10.82495208       0.00668723       14      -0.72125732      -1.33460128      -0.60427862      -0.22923842       0.00183152       0.01674774
Al      17.74117314      10.80864019       5.15955995       15      -0.65373872       0.14312472      -0.97205308      -0.21959132       0.00062272       0.01771248
H       15.58526682      10.76102569       6.02632817       16       0.13430397       0.02367028       0.00010335       0.06714768      -0.00230601       0.00842872
H       16.17083879      11.46079194       3.45555023       17       0.02750978      -0.08537519       0.27633079      -0.00732651      -0.06427121       0.00160959
H        5.34745561       0.64397712       8.60667399       18      -0.34423124      -0.27634785       0.12089484      -0.00636815      -0.07172509       0.00120762
H        6.05690245      10.78396078       6.00173973       19      -0.03072070       0.14477911       0.22860415      -0.07806074      -0.00872288       0.01039192
H        5.43447245      11.47420716       3.41954206       20       0.22782401       0.00963836      -0.07638918       0.00944713      -0.08454565       0.01253403
H       16.27756922      10.17463469       8.59494561       21       0.08069144       0.09529269       0.04434216       0.00398289       0.08496941       0.01233612
H       16.86976577      10.86431622       0.87695338       22      -0.26198637      -0.28607255      -0.18707264      -0.07147359       0.01088505       0.00666478
H        5.36334820      10.17095676       8.57807321       23      -0.14319494       0.16535549      -0.04555795      -0.00280654       0.07163175       0.00538527
H       16.18521667      20.99015135       3.44227865       24       0.17025149      -0.04604306      -0.02818052      -0.00977238       0.07361119       0.00489437
H       16.87444302      21.60618449       0.86501924       25       0.14833443      -0.29126518      -0.04182752      -0.08032473      -0.01968663       0.00712118
H       16.26535458       0.64592476       8.58486332       26       0.25777569      -0.19330388       0.04258019       0.01364084      -0.07033093       0.00260651
H       15.58210090       0.03841432       6.01285082       27       0.02963504      -0.04403150      -0.12463918       0.07178547       0.01389243       0.00306619
H        4.76585778      21.55663645       0.89372290       28       0.02198850       0.13494150      -0.16628045       0.05751480       0.01326244      -0.00057202
H        6.05049030       0.07065236       6.03270676       29      -0.08168339      -0.20266397       0.08720124      -0.07209744      -0.00741445       0.00553072
H        5.46919184      20.99253102       3.46326627       30      -0.03032396       0.03754104      -0.02595310       0.00596435       0.07439076       0.00099670
H        4.75965897      10.85566204       0.85174766       31       0.09704446      -0.02748808       0.33281170       0.07558511       0.00416694       0.01188600
H       12.96689340      19.82391220       5.41408631       32       0.03413435      -0.10129187      -0.03796137       0.04718479      -0.02602283      -0.04489240
H        8.65200908      19.82347941       5.41809865       33       0.08131733      -0.01910535      -0.01196538      -0.02908619      -0.02262122      -0.04076727
H       10.81016248      21.24061307       8.85739376       34       0.07452651      -0.18121105      -0.07797717       0.01142893       0.04797244       0.01758900
H       10.80905610      19.43793695       4.21151615       35       0.12718446      -0.11239694       0.02240745       0.00695334      -0.03163721      -0.10213207
H       12.98275688       1.84118572       4.84988965       36       0.14612715       0.02015922      -0.13146424       0.03873340       0.03008777       0.03701270
H        8.66419350       1.84551300       4.85112422       37      -0.36257277      -0.08442571       0.02489646      -0.04594329       0.03179208       0.03759849
H       10.82157381       0.42729752       1.41131470       38       0.07843488      -0.12730219       0.24787028      -0.00223817      -0.04729201      -0.02729165
H       10.82397988       2.22045354       6.05976433       39       0.01804447      -0.30566033      -0.47591073      -0.00372435       0.03354461       0.10519271
H        2.15336339      19.80220050       9.99916155       40       0.09616373       0.18505202      -0.02369991       0.04890128      -0.03454016       0.03869166
H       19.47197126      19.79765688       9.99669242       41      -0.01133446      -0.19647277       0.09747404      -0.03988486      -0.02699304       0.03821492
H       21.63066085      21.21555244       6.55914628       42      -0.17853604       0.38060770       0.05576791       0.00561664       0.04733833      -0.03580517
H       21.63126725      19.42565814       0.92016319       43      -0.10418137       0.05178752      -0.18720587       0.00163669      -0.03083395       0.10394500
H        2.16453251       1.82157155       0.27592550       44      -0.11657766      -0.03435717       0.05637857       0.03192527       0.02173710      -0.04400950
H       19.48681759       1.82395169       0.26800370       45       0.07634842      -0.08488773       0.25052420      -0.04300327       0.02286500      -0.04056970
H        0.00195097       0.38420330       3.70400664       46      -0.00652866      -0.14371962      -0.10844458      -0.00558847      -0.04710288       0.02648191
H        0.00912836       2.21325941       9.35729011       47      -0.01012695       0.30636405       0.01196559      -0.00671578       0.02831917      -0.09710264
H        3.58994730      18.39334959       2.84834952       48       0.15385308       0.15660159       0.21118970      -0.02657371       0.03637845      -0.05023945
H        3.58691049      14.07838457       2.83981044       49       0.34245956      -0.39169030      -0.17387437      -0.02361242      -0.04358033      -0.04249724
H        5.01708020      16.23050978       6.27982572       50       0.17557671      -0.16031522       0.00784858       0.04859492      -0.00470226       0.02350539
H        3.20034619      16.23794230       1.63981229       51       0.08079844       0.07858214       0.02885968      -0.02854394      -0.00536775      -0.09729934
H        3.56955439       3.25530447       7.42395976       52      -0.07711160      -0.59504854       0.09189846      -0.03133813      -0.04751270       0.03843528
H        3.56869578       7.57394787       7.42118199       53      -0.21460075       0.16646933       0.05106906      -0.02852055       0.03993405       0.03683629
H        4.98619544       5.41251893       3.98373872       54       0.00358504      -0.12296908       0.17269739       0.04547896      -0.00039135      -0.03131962
H        3.19384810       5.41547178       8.63280563       55       0.18640491      -0.26491886      -0.23557464      -0.03092252      -0.00501540       0.09693822
H       14.38969948      18.38773342       2.28014052       56       0.25006690       0.19997888       0.26928112      -0.03231893       0.04648630       0.03937718
H       14.38817788      14.06973913       2.28168373       57       0.10863424      -0.31698047       0.05878565      -0.03111343      -0.04700871       0.03655773
H       15.79892918      16.22743396       9.12735220       58      -0.00505649       0.03304623       0.00007833       0.04916512      -0.00068642      -0.03157038
H       14.01376992      16.22925734       3.49083824       59       0.10682904      -0.19173331      -0.10312023      -0.03332928      -0.00149094       0.10588880
H       14.40632409       3.25356433       7.98579017       60       0.09634943      -0.00070603       0.17426410      -0.02224599      -0.03680905      -0.03888394
H       14.40308607       7.56852939       7.99144860       61       0.08089989      -0.14376195      -0.16834323      -0.02450177       0.03797912      -0.04678558
H       15.84108463       5.40910385       1.13312583       62      -0.25920067      -0.08555825      -0.33019098       0.05056392      -0.00185581       0.02905818
H       14.01391791       5.41204024       6.78568914       63      -0.05652409       0.03669104      -0.24804919      -0.02898318      -0.00200208      -0.09800492
H        7.24186089      18.38405524       2.27849443       64       0.09060993       0.24877671       0.24599321       0.03208097       0.04170157       0.03994828
H        7.24769595      14.06562827       2.27715699       65       0.12262951      -0.08562808       0.15859950       0.03040853      -0.04837577       0.03948866
H        5.82938733      16.22332304       9.12652915       66      -0.00465104       0.00692828      -0.52515236      -0.04400194       0.00605121      -0.02448346
H        7.61912124      16.22536281       3.48878063       67       0.21442228       0.00906113      -0.15029368       0.03388479      -0.00253917       0.10576358
H        7.23533479       3.24382778       7.99402061       68      -0.20595324      -0.27730750       0.17123405       0.01944712      -0.02727650      -0.04566438
H        7.22841808       7.55944222       7.98249799       69       0.17146126      -0.35619187       0.18150160       0.02650344       0.04111626      -0.04075328
H        5.79408136       5.40737294       1.13271430       70      -0.02071515      -0.14745709      -0.15530534      -0.04474701       0.00301653       0.01934554
H        7.62251615       5.39927472       6.78517473       71       0.06559169      -0.10104321      -0.15501833       0.02943853       0.00734725      -0.09876379
H       18.04704073      18.37971871       2.84166229       72      -0.06324479      -0.10838932      -0.11795320       0.02525588       0.03763927      -0.04134017
H       18.05179373      14.06367159       2.85030425       73       0.12231951      -0.22585539      -0.08230551       0.01923528      -0.02373052      -0.04511678
H       16.61265668      16.22553342       6.27807675       74      -0.10264300       0.10057735      -0.06767016      -0.04685448       0.00477149       0.02525807
H       18.44048957      16.22020033       1.64300158       75       0.05450203       0.13502277       0.11458727       0.03074716       0.00669278      -0.10270357
H       18.07121946       3.24859716       7.42354824       76       0.20180201      -0.22113084      -0.06670725       0.02713121      -0.04817336       0.03875394
H       18.06148974       7.56680776       7.42519432       77      -0.05215082       0.00862674      -0.08048250       0.03208044       0.04735862       0.04079901
H       16.64560208       5.40472974       3.98713378       78       0.02975788       0.07884674       0.16030741      -0.04353575       0.00797517      -0.03045595
H       18.44069738       5.40854806       8.63548053       79       0.10002396      -0.16585654       0.03356427       0.03187271      -0.00122233       0.09930033
H        2.14896774       9.00185718       0.26728354       80      -0.01834885       0.18655585      -0.06204711       0.04013214      -0.02346513      -0.04349131
H       19.47082021       9.00488618       0.27366213       81       0.10580923       0.04653032      -0.00500520      -0.03009873      -0.02419903      -0.04264982
H       21.63351654      10.42742904       3.70863626       82      -0.13001578      -0.04505443       0.22591586       0.00412941       0.04647834       0.01867071
H       21.62673805       8.61722771       9.35368930       83      -0.14678987      -0.28912250      -0.01282902       0.00503551      -0.03057241      -0.10016445
H        2.16243202      12.65393709       9.99422329       84       0.06087484      -0.01296661       0.37757372       0.04556345       0.03159846       0.03886071
H       19.48147006      12.66670266       9.99185704       85       0.40202892      -0.14198855      -0.09588975      -0.04922884       0.03032919       0.04142411
H        0.00168160      11.24069799       6.55554546       86      -0.08519200       0.04704778      -0.04919031      -0.00441150      -0.04607387      -0.03286677
H        0.00370201      13.03726826       0.91512205       87      -0.02702819      -0.21147609      -0.31533034      -0.00167506       0.03216809       0.09882891
H       12.97109370       8.97625092       4.85163862       88       0.15369859       0.16432202      -0.21186000       0.04010978      -0.02905888       0.03653216
H        8.65253048       8.97906371       4.84896372       89      -0.17545512      -0.34179394       0.16143610      -0.04480215      -0.03062538       0.03907847
H       10.81381612      10.39998834       1.41378383       90      -0.22531029       0.44649999       0.17323386       0.00388391       0.04334346      -0.02845027
H       10.81091420       8.60148710       6.06007297       91       0.36113965       0.19819724      -0.15051156       0.00074931      -0.03396425       0.10667102
H       12.98007925      12.63497208       5.41593816       92       0.31647559       0.08060339      -0.13160971       0.03290157       0.02195475      -0.04427364
H        8.66497747      12.64103037       5.41172006       93       0.04836196      -0.18636020      -0.03957056      -0.03741201       0.02173968      -0.04173468
H       10.81901187      11.20084927       8.84617979       94       0.29935119      -0.17374020       0.26228234      -0.00717353      -0.04777313       0.02806023
H       10.82385721      13.02682870       4.20987006       95      -0.17300263      -0.14455737       0.26075091      -0.00295919       0.02880328      -0.09537349
C       12.01613135      20.04351471       5.89340656       96      -1.28253716      -0.00366262      -0.06695982       0.03299306       0.04790359       0.01584586
C       12.02343300      20.55757625       7.20132636       97       0.39321574       0.22718267      -0.28749571      -0.15866140      -0.00371915      -0.03893127
C       13.32078303      20.73520011       7.91603719       98      -0.96886968       1.53240359       0.46451746       0.01517034      -0.04422330       0.01554838
C       10.81323421      20.84295099       7.84525541       99       0.29072034      -0.42192507      -0.58080919      -0.00399414      -0.00506214      -0.05613154
C       10.81009915      19.81158238       5.23270799      100       0.68684409       0.91189098      -0.97017734       0.00452933       0.06164360       0.09544170
C        9.60488524      20.04286560       5.89412672      101       0.22992515      -0.27112681      -0.70624015      -0.02190501       0.05281848       0.01810706
C        9.60309917      20.55757625       7.20132636      102      -0.58007222       0.16608093       0.51180509       0.15704759       0.00014560      -0.02830398
C        8.30809984      20.73541645       7.91727176      103       0.29163022       0.24252495      -0.52870491      -0.01811640      -0.04505042       0.01688845
C       12.02901493       1.62396317       4.37417022      104      -0.02045736       0.08215950      -0.24181030       0.01033154      -0.06271388      -0.02675053
C       12.03101673       1.11336348       3.06532450      105       0.57551608      -1.17472957       1.37753835      -0.15816311      -0.00700766       0.02306341
C       13.32406840       0.93747058       2.34814453      106      -0.41237141      -0.76190276      -0.51395784       0.03238194       0.02999867       0.01444447
C       10.82109827       0.82669053       2.42263001      107       0.40737703      -0.28161309      -0.05268519      -0.00183983       0.00816237       0.05619690
C       10.82315230       1.85265000       5.03641200      108       1.22493659       0.63723228      -0.87508179       0.00159692      -0.04621687      -0.08963255
C        9.61668649       1.62634318       4.37406734      109      -1.11405401       0.80317834      -0.21370005      -0.01949046      -0.06279886      -0.02016154
C        9.61154812       1.11509440       3.06542738      110       0.65435778      -0.69591833      -0.55137927       0.15550625      -0.00804084       0.02140978
C        8.31701075       0.93855239       2.34917334      111       0.63187560      -0.27723362      -0.35125082      -0.03980151       0.03271267       0.01189342
C        1.20063869      20.01922232       9.52189891      112      -0.38074402       0.41428299       0.37393374       0.01084264       0.06552733      -0.02134926
C        1.20486900      20.52791768       8.21233303      113       0.16234632      -0.11639654      -0.18293035      -0.14638963       0.00578788       0.02465321
C        2.49916706      20.70058864       7.49453578      114       0.03531798       0.33368962      -0.64136258       0.03201071      -0.03381755       0.01333469
C       21.63225149      20.81569353       7.57005007      115       0.07330668      -0.07584077      -1.02501569      -0.00091118      -0.00487703       0.05508282
C       21.63158099      19.79289377      10.18465509      116       0.73012197       0.64632763       0.03392839      -0.00523874       0.03947243      -0.09195418
C       20.42526439      20.01814050       9.52159027      117      -1.11088443       0.13121537       0.82936707      -0.00739432       0.05860696      -0.02139764
C       20.42257062      20.52813404       8.21264167      118      -0.74231679      -1.46251335      -0.33507790       0.15035851       0.00708048       0.01706079
C       19.12971227      20.70058866       7.49330122      119       0.15368964      -0.22801923      -0.32479867      -0.03007386      -0.03472052       0.01401630
C        1.21145609       1.59870793       0.74969020      120       0.48000976      -0.00705659      -0.71877169       0.01970652      -0.05339336       0.02279896
C        1.21285326       1.07724712       2.05452358      121       0.05355313       0.01312188      -0.27927629      -0.16346542       0.00782303      -0.04025866
C        2.50722690       0.90003250       2.77211507      122       0.01515037       0.41272582       0.75805479       0.01695530       0.04134867       0.01939856
C        0.00165791       0.78860585       2.69474894      123       1.10429957       1.56277504      -0.73762811       0.00092860       0.00028846      -0.04597969
C        0.00665267       1.83369106       0.08837435      124       0.86910754      -0.45597360       1.00830577      -0.00003071      -0.05841789       0.09540598
C       20.43694691       1.59978980       0.74691243      125      -0.09508861      -0.54162019       0.04828261      -0.03260403      -0.04894583       0.01898779
C       20.42904005       1.07876171       2.05226021      126       0.31588565      -0.02055191      -0.30920465       0.15729823       0.00428225      -0.03823523
C       19.13236265       0.90089802       2.76841137      127      -0.22148872       0.29123991      -0.03173326      -0.01983607       0.03839980       0.02166856
C        3.81057960      17.44003808       3.32221711      128      -0.32686951      -0.38537449       0.02646409       0.05509764       0.02305116       0.01870766
C        4.32881098      17.44174757       4.62807929      129       0.06506309       0.37223081      -0.12021321      -0.00472332      -0.17181260      -0.03607417
C        4.50605508      18.73603062       5.34536214      130      -1.12489215       0.02042623       0.60286156      -0.04794457       0.01564321       0.00772103
C        4.61591045      16.23074272       5.26923057      131      -0.06011368      -0.48195678       0.18864439      -0.00501524      -0.01045754      -0.05239225
C        3.57728278      16.23554555       2.65997533      132       0.12718191      -0.24650488       0.10100203       0.05611278      -0.00294640       0.09194740
C        3.80963989      15.02865135       3.31892493      133      -0.17525231      -0.08133073      -1.13930713       0.04726132      -0.02493999       0.01629806
C        4.32743993      15.02105714       4.62530152      134      -0.65986214      -0.51174270      -0.41517023      -0.00200201       0.15858013      -0.03533445
C        4.50528572      13.72372150       5.33949795      135      -0.01822642      -0.46156215      -0.60992743      -0.04108489      -0.01879346       0.01582317
C        3.78815672       4.20775058       6.94669712      136      -0.33016155       1.13612486      -0.14585162       0.05990783      -0.00906667      -0.01602849
C        4.29834048       4.20257929       5.63764564      137      -0.76098382      -0.00063090      -0.42962892       0.00313370       0.16124415       0.02035798
C        4.47183498       2.90786351       4.92077431      138       0.24397675      -0.94553118       0.78824736      -0.04218588      -0.04406452       0.02902347
C        4.58592438       5.41250235       4.99464251      139       0.51272980      -0.13333596       0.41160487      -0.00416050      -0.00695972       0.06215257
C        3.56123061       5.41440675       7.60904178      140      -0.01006989       0.07674725      -0.32869741       0.04716874       0.00170700      -0.09369629
C        3.78801431       6.62043556       6.94597696      141       0.53272925      -0.04245757      -0.44370481       0.06378994       0.00442429      -0.03123916
C        4.29862972       6.62262068       5.63692547      142      -0.70435355       0.52621231       0.90796390       0.00542207      -0.15096126       0.01823830
C        4.47238846       7.91584547       4.91779078      143      -0.26741024       0.11798116       0.72433091      -0.04467723       0.03619993       0.02503501
C       14.60663787      17.43443749       1.80390669      144      -0.42951181      -0.87506918       0.77283660       0.06448214       0.01393564      -0.02383593
C       15.11530580      17.43748808       0.49434080      145      -0.24034654      -0.50678224      -1.24454603       0.00409453      -0.15191975       0.02161938
C       15.28880058      18.73076045      10.06469643      146      -0.46136889      -0.09823340       0.03609739      -0.03525316       0.04063172       0.01805973
C       15.40147093      16.22763373      10.13928479      147       0.41798161      -1.09028076       1.23991752      -0.00764852      -0.00548171       0.06174715
C       14.38007051      16.22862504       2.46697151      148       1.14524754      -0.50556836      -0.33380102       0.04443291       0.00420548      -0.08908747
C       14.60591469      15.02240161       1.80442109      149      -0.70511102       0.57127532      -0.96021782       0.06230020      -0.01575809      -0.01953224
C       15.11458369      15.01831215       0.49495809      150       0.08988626      -0.29175425       0.34169983       0.00689936       0.16221962       0.02009833
C       15.28867955      13.72450943      10.06603388      151      -0.26547043      -0.07997697      -0.25539939      -0.03964678      -0.04526365       0.01962513
C       14.62862060       4.20469658       8.46387585      152       0.04095785      -0.47054937      -0.67952931       0.04835701      -0.02811559       0.01319463
C       15.14923316       4.19904968       9.76912076      153       0.36367991       0.98744819      -0.03831008      -0.00284216       0.15373557      -0.03180771
C       15.32734279       2.90296459       0.19742768      154      -1.07240739      -0.30339198       0.67925750      -0.04682321      -0.01957467       0.01254990
C       15.43775119       5.40933678       0.12355948      155       1.23018241      -0.12359007      -0.49152866      -0.00664037       0.00493905      -0.05166042
C       14.39323438       5.41094169       7.80492625      156       0.02954522      -0.13217949       0.44825458       0.06137943       0.00313777       0.10141013
C       14.62674743       6.61629969       8.46624210      157      -0.71280485       0.55450010      -0.17112215       0.05099684       0.02378776       0.01553211
C       15.14800768       6.62017286       9.77107548      158       0.62214369       0.27305564       0.00691212      -0.00353892      -0.16883753      -0.03463428
C       15.32551557       7.91570650       0.19989681      159      -0.66016304       0.39155207      -0.41794908      -0.04381814       0.02183510       0.01329333
C        7.02497405      17.43054295       1.80236348      160      -0.28684955      -0.30609211       0.65338508      -0.05855125       0.02112662      -0.01965800
C        6.51647849      17.43445900       0.49290048      161       0.31245359       0.37510344       1.00365855      -0.00666120      -0.14906057       0.01876437
C        6.34377841      18.72881317      10.06449067      162       0.04841571       0.12750843       0.06163455       0.03497166       0.04301179       0.01925131
C        6.22904222      16.22482101      10.13784447      163      -0.34408127      -0.29324855      -0.56866810       0.00800184      -0.00843129       0.05861558
C        7.25257089      16.22473051       2.46501678      164      -0.40191410      -0.11423606      -0.81016805      -0.04614772      -0.00693298      -0.09678129
C        7.02771280      15.01850709       1.80154044      165       0.04796776      -0.48875339      -0.48901443      -0.06537802      -0.00403170      -0.02358981
C        6.51705460      15.01528308       0.49259183      166       0.26678382       0.67838012       0.33025943      -0.00385622       0.15900599       0.02312510
C        6.34409017      13.72191312      10.06212442      167       1.00785139      -0.69650063       0.30694276       0.03993968      -0.03732266       0.01894215
C        7.00995784       4.19712377       8.46644786      168       0.20287378      -0.75798538       0.17320968      -0.04996976      -0.02266327       0.02181820
C        6.48787455       4.19558782       9.77086972      169      -0.07275882       0.51499238      -1.07476813       0.00251427       0.16475072      -0.02877424
C        6.30940341       2.90101726       0.20010257      170      -0.40488694       1.09421543       0.02150589       0.05177914      -0.01669005       0.00966097
C        6.19824720       5.40695677       0.12314796      171       0.72147683      -0.20909340       0.31617041       0.00207845      -0.00043718      -0.05206967
C        7.24323290       5.40185438       7.80441185      172      -0.08614523       1.38436093       0.60914200      -0.05893725       0.00461420       0.09469991
C        7.00765178       6.60894335       8.46222976      173      -0.42754242      -0.34642161      -0.10022143      -0.05236278       0.02250497       0.01366472
C        6.48751451       6.61649471       9.76778331      174      -0.20762091      -0.27193180       0.66388211       0.00585352      -0.15984902      -0.03834323
C        6.30909066       7.91375931       0.19444414      175      -0.23445488      -0.36299855       0.00797494       0.04731551       0.02436406       0.00787106
C       17.82562536      17.42878713       3.32046814      176       0.42132849      -0.42999889      -0.06678633      -0.04927270       0.03298965       0.01252097
C       17.30548815      17.43590576       4.62591880      177      -0.60129788      -0.06343840      -0.18046178       0.00082594      -0.15922031      -0.03550908