18
Lattice="15.108652899924854 0.0 0.0 0.0 15.108652899924854 0.0 0.0 0.0 15.108652899924854" Properties=species:S:1:pos:R:3:momenta:R:3:forces:R:3:charge:R:1 energy=-1060.1973378838718 free_energy=-1060.1973378838718 dipole="-0.35149350162201815 0.05319038918351337 -0.2953293208032542" stress="0.0 0.0 0.0 0.0 0.0 0.0 0.0 0.0 0.0" pbc="T T T"
H        5.42747415       8.08576662       5.97791346       0.23917494       0.14895508       0.02547043       0.09975774       0.11792805       0.01227968       0.05575002
H        7.59551570       8.60250843       4.82443615      -0.06369099      -0.04878809      -0.17830769      -0.03193637      -0.11545553       0.22317236       0.04504275
C        8.77370868       7.48625009       7.83010367       0.90454025       0.18451902      -0.15585182      -0.09173830      -0.10773687       0.03010584      -0.03317617
C       10.10376623       7.23468041       8.44862633      -0.85277283      -0.55638275       1.02794635      -0.09054345       0.08038458       0.02925255       0.57974017
O       10.04532215       6.56314641       9.60379168      -0.78101752       0.77772460      -0.14286795       0.18330393       0.06876039      -0.02382616      -0.50561875
O       11.15009714       7.60020009       7.97517688       1.01899922      -0.89045841      -0.29146370      -0.09235008      -0.04931931      -0.02501058      -0.53305942
C        6.36872675       7.50294928       7.81148030       0.23464878      -0.05303072      -0.77461828       0.06288541      -0.06716504       0.08417590      -0.03475912
C        5.06482644       7.22126962       8.47446503      -0.47494687       0.90481787      -0.25443968       0.12741203       0.00075210      -0.20758435       0.57915792
O        4.02531724       7.77493921       7.82475617      -0.20620581      -0.16220126      -0.01392727       0.11784860      -0.32403626       0.12308510      -0.51198839
O        4.92288533       6.54109599       9.45490712      -0.08823008      -0.75152809       0.68539215       0.01906520       0.02232105       0.05443597      -0.52583580
H        9.69903272       8.12913060       6.00627067       0.36591717      -0.05938736       0.03481951       0.16810277       0.07553884       0.08123390       0.05930530
H        7.53654045       6.86685447       9.50526072      -0.08673831      -0.11002666      -0.01087423       0.03828421       0.02228672      -0.11940126       0.07000509
C        8.76191129       7.97640767       6.52534175      -0.48167815       0.36871176      -0.01578649      -0.03989373       0.10239868      -0.38900179       0.00241557
C        7.56637961       7.23983729       8.48432176      -0.06068723       0.27620444      -0.31992516      -0.12362535       0.13294594      -0.08241482       0.00879795
C        7.57590036       8.22615185       5.84736779      -0.32420090       0.20005032       0.15350340      -0.01613079      -0.12890333       0.15239105      -0.02393431
C        6.37533241       7.96478409       6.49367496       0.03756037       0.17468507       0.72478562       0.00863956       0.08063206      -0.11449038       0.00066119
H       10.96353800       6.47764343       9.91798361       0.40295687      -0.24966524      -0.24296587      -0.13496574      -0.08957671       0.10156912       0.38349645
H        3.22429414       7.38912624       8.21065629       0.21637109      -0.15419958      -0.25088934      -0.20411564       0.17824463       0.07002787       0.38399955
18
Lattice="15.108652899924854 0.0 0.0 0.0 15.108652899924854 0.0 0.0 0.0 15.108652899924854" Properties=species:S:1:pos:R:3:momenta:R:3:forces:R:3:charge:R:1 energy=-1060.2347614613489 free_energy=-1060.2347614613489 dipole="-0.38454587617913266 0.08685749225087247 -0.2655262623533901" stress="0.0 0.0 0.0 0.0 0.0 0.0 0.0 0.0 0.0" pbc="T T T"
H        5.43674400       8.11925544       5.97291641       0.23917494       0.14895508       0.02547043       0.02082907       0.07387937      -0.02316667       0.05586718
H        7.58330326       8.58531484       4.84475867      -0.06369099      -0.04878809      -0.17830769       0.01307765       0.04517075      -0.18738960       0.04386000
C        8.77174469       7.48287862       7.81619278       0.90454025       0.18451902      -0.15585182      -0.03955972       0.02988613       0.07394681      -0.03346066
C       10.09227793       7.24174810       8.44963247      -0.85277283      -0.55638275       1.02794635       0.26111668       0.02691647      -0.09595153       0.58066387
O       10.04508098       6.57717550       9.60658734      -0.78101752       0.77772460      -0.14286795      -0.10372086      -0.00765728       0.08854301      -0.50525882
O       11.13434867       7.60013670       7.95806782       1.01899922      -0.89045841      -0.29146370      -0.04423585      -0.04542894       0.06681510      -0.53515984
C        6.36257501       7.49875689       7.80466610       0.23464878      -0.05303072      -0.77461828       0.01160687      -0.03618531       0.01587173      -0.03351507
C        5.06747073       7.19712478       8.47061618      -0.47494687       0.90481787      -0.25443968       0.03163033      -0.03613116       0.06402773       0.58107073
O        4.02207724       7.72006992       7.81475862      -0.20620581      -0.16220126      -0.01392727      -0.01979592      -0.08450348      -0.02270377      -0.51065894
O        4.94755008       6.54187477       9.47234275      -0.08823008      -0.75152809       0.68539215      -0.00501409       0.06129443      -0.01983560      -0.52722557
H        9.72998229       8.14909039       6.02058754       0.36591717      -0.05938736       0.03481951      -0.03907844       0.00348798      -0.01217594       0.06148083
H        7.54479776       6.87216227       9.48268796      -0.08673831      -0.11002666      -0.01087423       0.00968855       0.00886500       0.02881816       0.06937583
C        8.77719397       7.97035574       6.50787482      -0.48167815       0.36871176      -0.01578649      -0.02176253       0.03508228       0.04549980       0.00302878
C        7.56424473       7.25586389       8.46924073      -0.06068723       0.27620444      -0.31992516      -0.06214425      -0.13433122      -0.00028308       0.00715006
C        7.58053159       8.21045313       5.85638316      -0.32420090       0.20005032       0.15350340       0.02225739       0.02550017      -0.05962546      -0.02461917
C        6.37460547       7.96981365       6.49361518       0.03756037       0.17468507       0.72478562       0.02785474      -0.00846891      -0.02736714       0.00021174
H       10.95012183       6.45825507       9.94194356       0.40295687      -0.24966524      -0.24296587      -0.05437807       0.02346871      -0.03760681       0.38343684
H        3.19591857       7.43241208       8.23366222       0.21637109      -0.15419958      -0.25088934      -0.00837156       0.01915501       0.10258325       0.38375221
18
Lattice="15.108652899924854 0.0 0.0 0.0 15.108652899924854 0.0 0.0 0.0 15.108652899924854" Properties=species:S:1:pos:R:3:momenta:R:3:forces:R:3:charge:R:1 energy=-1060.2478785045203 free_energy=-1060.2478785045203 dipole="-0.38199088634385114 0.11352852421266095 -0.2543579310301623" stress="0.0 0.0 0.0 0.0 0.0 0.0 0.0 0.0 0.0" pbc="T T T"
H        5.44789505       8.15313726       5.96685710       0.23917494       0.14895508       0.02547043      -0.03058221       0.00011274       0.00115865       0.05533256
H        7.58482437       8.58336800       4.82123840      -0.06369099      -0.04878809      -0.17830769       0.04101179      -0.00719799       0.04684456       0.04419787
C        8.77053072       7.48769462       7.81744968       0.90454025       0.18451902      -0.15585182       0.02877736       0.00629135      -0.06386346      -0.03465578
C       10.09756840       7.24446533       8.44824466      -0.85277283      -0.55638275       1.02794635      -0.03161047       0.02496867       0.00344427       0.58075791
O       10.02896405       6.59089460       9.61250074      -0.78101752       0.77772460      -0.14286795      -0.02887021       0.00309069       0.00836736      -0.50617801
O       11.14470894       7.58946208       7.96192559       1.01899922      -0.89045841      -0.29146370      -0.05089116      -0.04906255       0.03492439      -0.53271468
C        6.36278700       7.48599630       7.79414562       0.23464878      -0.05303072      -0.77461828       0.00138062      -0.05120822      -0.03002542      -0.03391798
C        5.06980809       7.18281495       8.46999610      -0.47494687       0.90481787      -0.25443968      -0.02840392      -0.01827364      -0.01366952       0.58136687
O        4.01351223       7.67414788       7.80685005      -0.20620581      -0.16220126      -0.01392727      -0.02420225       0.04023481      -0.03119554      -0.51093498
O        4.95820831       6.55434334       9.48923025      -0.08823008      -0.75152809       0.68539215       0.05509192       0.05966494       0.02492704      -0.52720760
H        9.73057402       8.15884015       6.02632095       0.36591717      -0.05938736       0.03481951      -0.00559841       0.01458426      -0.01113649       0.06058378
H        7.54746200       6.87077956       9.48420813      -0.08673831      -0.11002666      -0.01087423      -0.02990996      -0.04699091      -0.04610596       0.06992641
C        8.77598704       7.97791771       6.50833231      -0.48167815       0.36871176      -0.01578649       0.00621532      -0.00914071      -0.01756981       0.00248324
C        7.56164590       7.23501228       8.46226823      -0.06068723       0.27620444      -0.31992516       0.03461193       0.05485009      -0.00839617       0.00824728
C        7.58512232       8.21316332       5.84110716      -0.32420090       0.20005032       0.15350340       0.00382082       0.01273058       0.02709106      -0.02425776
C        6.38143130       7.97178219       6.48477362       0.03756037       0.17468507       0.72478562      -0.02442189       0.00150064       0.01251265       0.00034194
H       10.92993937       6.45409897       9.94844344       0.40295687      -0.24966524      -0.24296587      -0.00819303       0.01509292       0.01284958       0.38310035
H        3.18959968       7.45482325       8.27264232       0.21637109      -0.15419958      -0.25088934       0.09177376      -0.05124766       0.04984281       0.38352859
18
Lattice="15.108652899924854 0.0 0.0 0.0 15.108652899924854 0.0 0.0 0.0 15.108652899924854" Properties=species:S:1:pos:R:3:momenta:R:3:forces:R:3:charge:R:1 energy=-1060.2552913711838 free_energy=-1060.2552913711838 dipole="-0.3784227104852164 0.11231077398451236 -0.2555222943770949" stress="0.0 0.0 0.0 0.0 0.0 0.0 0.0 0.0 0.0" pbc="T T T"
H        5.44495622       8.17196936       5.96517277       0.23917494       0.14895508       0.02547043      -0.00756391      -0.03703899      -0.01078610       0.05585553
H        7.60013118       8.58438937       4.81876487      -0.06369099      -0.04878809      -0.17830769      -0.02462181       0.05144058       0.00629012       0.04415132
C        8.77170007       7.49211036       7.81023355       0.90454025       0.18451902      -0.15585182      -0.01572904      -0.01394099       0.02087519      -0.03435694
C       10.08926699       7.24569372       8.45365738      -0.85277283      -0.55638275       1.02794635      -0.01300331      -0.03615267       0.00064636       0.58047992
O       10.00603396       6.60161992       9.62278210      -0.78101752       0.77772460      -0.14286795       0.00707503       0.01942601       0.00543033      -0.50646495
O       11.14511664       7.56909736       7.97279330       1.01899922      -0.89045841      -0.29146370      -0.00910353       0.00214938      -0.00582659      -0.53286694
C        6.36357715       7.46528325       7.77595969       0.23464878      -0.05303072      -0.77461828      -0.00201208       0.09074271      -0.01220750      -0.03409905
C        5.07571844       7.17617561       8.46177650      -0.47494687       0.90481787      -0.25443968       0.04287100       0.05778266       0.03181505       0.58029857
O        4.01004002       7.65138949       7.80168936      -0.20620581      -0.16220126      -0.01392727       0.03166658      -0.04038068       0.05321446      -0.51025925
O        4.97705873       6.58832109       9.50657399      -0.08823008      -0.75152809       0.68539215       0.01077917       0.00669562       0.02298374      -0.52842849
H        9.73013863       8.17079162       6.02046571       0.36591717      -0.05938736       0.03481951       0.00964192      -0.00190091      -0.01243386       0.06051485
H        7.54014458       6.85215862       9.46577548      -0.08673831      -0.11002666      -0.01087423       0.00180276      -0.01651839      -0.02648149       0.07086096
C        8.77764667       7.98122780       6.50242133      -0.48167815       0.36871176      -0.01578649       0.01168695       0.02824225       0.00647420       0.00277507
C        7.56226162       7.23242189       8.45005773      -0.06068723       0.27620444      -0.31992516      -0.01624543      -0.06819502      -0.04158365       0.00831002
C        7.58603555       8.22035249       5.83921999      -0.32420090       0.20005032       0.15350340       0.00805617      -0.03393916      -0.02473422      -0.02446530
C        6.37930660       7.97314604       6.47617629       0.03756037       0.17468507       0.72478562       0.02576938       0.01187428      -0.04546961       0.00057899
H       10.90783689       6.45991838       9.95530594       0.40295687      -0.24966524      -0.24296587      -0.02451924      -0.00039329       0.04622648       0.38312773
H        3.21359887       7.44667540       8.31770835       0.21637109      -0.15419958      -0.25088934      -0.03655059      -0.01989340      -0.01443292       0.38398793
18
Lattice="15.108652899924854 0.0 0.0 0.0 15.108652899924854 0.0 0.0 0.0 15.108652899924854" Properties=species:S:1:pos:R:3:momenta:R:3:forces:R:3:charge:R:1 energy=-1060.2617260644693 free_energy=-1060.2617260644693 dipole="-0.38572143627528677 0.11089980689260931 -0.25516146547525265" stress="0.0 0.0 0.0 0.0 0.0 0.0 0.0 0.0 0.0" pbc="T T T"
H        5.44116765       8.17563870       5.95498776       0.23917494       0.14895508       0.02547043       0.03751835      -0.00668190      -0.04642157       0.05584173
H        7.60638968       8.60587397       4.81654753      -0.06369099      -0.04878809      -0.17830769      -0.00070419       0.01698424      -0.05833149       0.04410272
C        8.77130900       7.48688121       7.79953137       0.90454025       0.18451902      -0.15585182       0.00341026      -0.05135590      -0.02253978      -0.03411192
C       10.07909439       7.23785815       8.45788682      -0.85277283      -0.55638275       1.02794635       0.04362795      -0.01247837      -0.01207263       0.58075274
O        9.98240161       6.61646873       9.63793961      -0.78101752       0.77772460      -0.14286795      -0.02172016      -0.01283151       0.01399106      -0.50653709
O       11.13990626       7.54808433       7.97995646       1.01899922      -0.89045841      -0.29146370       0.04674475      -0.00008061      -0.01224542      -0.53313116
C        6.36421498       7.47327033       7.75900280       0.23464878      -0.05303072      -0.77461828      -0.01655830      -0.05716192       0.03518152      -0.03457622
C        5.09063278       7.18707705       8.47073309      -0.47494687       0.90481787      -0.25443968      -0.01907077      -0.02309015       0.01439026       0.58009828
O        4.00914527       7.62055362       7.81217558      -0.20620581      -0.16220126      -0.01392727      -0.04564951       0.03464970       0.01688653      -0.50951401
O        5.01173567       6.62729703       9.53362045      -0.08823008      -0.75152809       0.68539215       0.06243164       0.04517338      -0.01148752      -0.52975429
H        9.73419312       8.18333442       6.01341927       0.36591717      -0.05938736       0.03481951       0.00628045       0.01496802       0.02663929       0.06049664
H        7.53196698       6.82327343       9.43594585      -0.08673831      -0.11002666      -0.01087423       0.00515713      -0.02974169      -0.00096402       0.07167659
C        8.78271483       7.99080626       6.49708487      -0.48167815       0.36871176      -0.01578649      -0.01105563      -0.04260986      -0.03536813       0.00332635
C        7.55976210       7.21301822       8.42475818      -0.06068723       0.27620444      -0.31992516       0.01770477       0.05853098       0.04492944       0.00770012
C        7.59213878       8.22045775       5.82775577      -0.32420090       0.20005032       0.15350340      -0.05307268       0.07275389       0.01423409      -0.02455712
C        6.38045434       7.97783389       6.45817818       0.03756037       0.17468507       0.72478562      -0.00339689      -0.00520668       0.05549533       0.00098875
H       10.87786376       6.46604506       9.98367862       0.40295687      -0.24966524      -0.24296587      -0.02503053       0.02354718       0.01679129       0.38311740
H        3.22547760       7.42896962       8.35333214       0.21637109      -0.15419958      -0.25088934      -0.02661664      -0.02536880      -0.03910826       0.38408048
18
Lattice="15.108652899924854 0.0 0.0 0.0 15.108652899924854 0.0 0.0 0.0 15.108652899924854" Properties=species:S:1:pos:R:3:momenta:R:3:forces:R:3:charge:R:1 energy=-1060.2657931248127 free_energy=-1060.2657931248127 dipole="-0.3989759675908905 0.09414635839046501 -0.26096461172004437" stress="0.0 0.0 0.0 0.0 0.0 0.0 0.0 0.0 0.0" pbc="T T T"
H        5.44559036       8.17204496       5.94055802       0.23917494       0.14895508       0.02547043      -0.00195013       0.01156642       0.00187379       0.05517313
H        7.60701851       8.62315049       4.81040930      -0.06369099      -0.04878809      -0.17830769      -0.01561443      -0.00592616       0.03962381       0.04410410
C        8.77274013       7.47429039       7.78813046       0.90454025       0.18451902      -0.15585182       0.00720854       0.00152188      -0.01306769      -0.03437091
C       10.07923437       7.22819638       8.45546030      -0.85277283      -0.55638275       1.02794635      -0.00667987       0.00711812      -0.01716654       0.58072458
O        9.96676960       6.62401529       9.64417098      -0.78101752       0.77772460      -0.14286795      -0.00028515      -0.00566633      -0.02951688      -0.50679950
O       11.14474612       7.53369888       7.98469134       1.01899922      -0.89045841      -0.29146370      -0.00698962      -0.02894987       0.00362754      -0.53220741
C        6.36455469       7.47256607       7.75303360       0.23464878      -0.05303072      -0.77461828       0.00624294      -0.00141883      -0.01083054      -0.03471252
C        5.09694046       7.19501471       8.47711860      -0.47494687       0.90481787      -0.25443968      -0.01187622      -0.00230903       0.00934594       0.58040794
O        4.00503610       7.61183556       7.82420228      -0.20620581      -0.16220126      -0.01392727      -0.00368768      -0.00800416      -0.00251430      -0.50947013
O        5.03954205       6.65673577       9.55209094      -0.08823008      -0.75152809       0.68539215      -0.02497206       0.00828353       0.01336429      -0.52983207
H        9.73562399       8.19185988       6.01350913       0.36591717      -0.05938736       0.03481951      -0.00733075      -0.00375736       0.00071615       0.06003997
H        7.52970096       6.80032129       9.42065280      -0.08673831      -0.11002666      -0.01087423       0.02074745       0.01447423       0.01186220       0.07241448
C        8.78174140       7.98970856       6.48907988      -0.48167815       0.36871176      -0.01578649       0.01348831       0.01184719       0.01021495       0.00301805
C        7.56091179       7.20882036       8.41694448      -0.06068723       0.27620444      -0.31992516       0.01226389      -0.01546935      -0.01427638       0.00799769
C        7.59079924       8.23384731       5.82296812      -0.32420090       0.20005032       0.15350340       0.01869678      -0.00498388       0.00948188      -0.02451960
C        6.38068878       7.98150980       6.45380386       0.03756037       0.17468507       0.72478562       0.00516285       0.00509803      -0.01006203       0.00105027
H       10.85587154       6.47653322      10.00601359       0.40295687      -0.24966524      -0.24296587      -0.00726774       0.02473903       0.01221645       0.38296552
H        3.22305873       7.40859287       8.36369665       0.21637109      -0.15419958      -0.25088934       0.00284290      -0.00816343      -0.01489264       0.38401639
18
Lattice="15.108652899924854 0.0 0.0 0.0 15.108652899924854 0.0 0.0 0.0 15.108652899924854" Properties=species:S:1:pos:R:3:momenta:R:3:forces:R:3:charge:R:1 energy=-1060.2668450972612 free_energy=-1060.2668450972612 dipole="-0.4024709167352163 0.09957306530368853 -0.25894708011111855" stress="0.0 0.0 0.0 0.0 0.0 0.0 0.0 0.0 0.0" pbc="T T T"
H        5.44835297       8.17709673       5.93690395       0.23917494       0.14895508       0.02547043       0.00240401       0.00327007       0.02360221       0.05510065
H        7.60331451       8.62919957       4.81617724      -0.06369099      -0.04878809      -0.17830769       0.00467113       0.02055606      -0.01999611       0.04398939
C        8.77479808       7.47044384       7.78257388       0.90454025       0.18451902      -0.15585182      -0.00560838       0.00196986       0.00735900      -0.03439542
C       10.07904960       7.22310352       8.45091337      -0.85277283      -0.55638275       1.02794635       0.00024536      -0.02699776       0.00523303       0.58086571
O        9.95898319       6.62363415       9.64074760      -0.78101752       0.77772460      -0.14286795       0.00220810       0.00295057       0.02235559      -0.50694804
O       11.14782045       7.52067009       7.98323780       1.01899922      -0.89045841      -0.29146370       0.00075994      -0.00164174      -0.01396479      -0.53222031
C        6.36448577       7.46860736       7.75102389       0.23464878      -0.05303072      -0.77461828      -0.00023137       0.00379335       0.01658389      -0.03466373
C        5.09703094       7.19642086       8.48066633      -0.47494687       0.90481787      -0.25443968       0.00873150       0.00652168      -0.00710528       0.58042596
O        4.00359279       7.60423761       7.82450264      -0.20620581      -0.16220126      -0.01392727       0.00975481      -0.01545099      -0.01800369      -0.50944970
O        5.04105059       6.67132129       9.56219748      -0.08823008      -0.75152809       0.68539215      -0.00980574       0.00369263       0.00150659      -0.52959686
H        9.73779316       8.19526134       6.01229213       0.36591717      -0.05938736       0.03481951       0.00645775       0.00778093      -0.00992302       0.06013345
H        7.53685664       6.79868259       9.41684869      -0.08673831      -0.11002666      -0.01087423       0.00191610      -0.00023536      -0.00146181       0.07239417
C        8.78470294       7.99266524       6.48778227      -0.48167815       0.36871176      -0.01578649      -0.00865242      -0.00939580      -0.01399191       0.00306298
C        7.56309499       7.20287099       8.41103119      -0.06068723       0.27620444      -0.31992516      -0.00613480       0.00820087       0.01011179       0.00796207
C        7.59227935       8.23681337       5.82577257      -0.32420090       0.20005032       0.15350340      -0.01401574       0.00249525      -0.00873791      -0.02470234
C        6.38123450       7.98247965       6.45348098       0.03756037       0.17468507       0.72478562      -0.00095501      -0.01081563       0.01092928       0.00110678
H       10.84414050       6.48992003      10.01663470       0.40295687      -0.24966524      -0.24296587       0.00613043       0.00422734       0.00311770       0.38289561
H        3.22198783       7.39931356       8.36374761       0.21637109      -0.15419958      -0.25088934       0.00212431      -0.00092132      -0.00761455       0.38403964
18
Lattice="15.108652899924854 0.0 0.0 0.0 15.108652899924854 0.0 0.0 0.0 15.108652899924854" Properties=species:S:1:pos:R:3:momenta:R:3:forces:R:3:charge:R:1 energy=-1060.2676116873129 free_energy=-1060.2676116873129 dipole="-0.39918540217089843 0.10654660509169822 -0.25669370737908437" stress="0.0 0.0 0.0 0.0 0.0 0.0 0.0 0.0 0.0" pbc="T T T"
H        5.44847881       8.18100243       5.94560373       0.23917494       0.14895508       0.02547043      -0.01904514      -0.00132943       0.00167658       0.05519027
H        7.60047609       8.63993281       4.81736898      -0.06369099      -0.04878809      -0.17830769      -0.00622777      -0.00689325       0.01730306       0.04408649
C        8.77530149       7.46696218       7.77897321       0.90454025       0.18451902      -0.15585182       0.00682865      -0.01839583      -0.00269898      -0.03451399
C       10.07860615       7.21378004       8.44790015      -0.85277283      -0.55638275       1.02794635       0.00722733       0.02604653       0.00076090       0.58070903
O        9.95745812       6.62425345       9.64317377      -0.78101752       0.77772460      -0.14286795       0.00415464       0.01889302      -0.00426244      -0.50704565
O       11.14758171       7.50738781       7.97784940       1.01899922      -0.89045841      -0.29146370       0.00394983      -0.02048815      -0.00100940      -0.53217610
C        6.36589035       7.46882764       7.75516074       0.23464878      -0.05303072      -0.77461828       0.00438721       0.00295702      -0.01039312      -0.03456923
C        5.09705773       7.19838704       8.48240825      -0.47494687       0.90481787      -0.25443968      -0.00496076      -0.01025834      -0.00190549       0.58035666
O        4.00556649       7.59468985       7.81600442      -0.20620581      -0.16220126      -0.01392727      -0.00425959      -0.00724113      -0.00861895      -0.50950622
O        5.03519410       6.68181835       9.56786254      -0.08823008      -0.75152809       0.68539215       0.01729261       0.01405346      -0.00807747      -0.52960833
H        9.73766816       8.19847036       6.00846704       0.36591717      -0.05938736       0.03481951      -0.01693710      -0.01162148       0.00354799       0.06011661
H        7.54350552       6.79913462       9.41795093      -0.08673831      -0.11002666      -0.01087423      -0.00677942      -0.00220328       0.00839032       0.07235452
C        8.78458852       7.99105043       6.48382560      -0.48167815       0.36871176      -0.01578649       0.00118615       0.00019025       0.01717466       0.00327843
C        7.56530872       7.20278120       8.41215350      -0.06068723       0.27620444      -0.31992516       0.00557986      -0.00405181       0.00184427       0.00790688
C        7.59072132       8.23933963       5.82500984      -0.32420090       0.20005032       0.15350340       0.00764473      -0.00176642       0.00839859      -0.02462433
C        6.38236831       7.98112237       6.45685553       0.03756037       0.17468507       0.72478562      -0.00308329       0.02930230       0.00053598       0.00105824
H       10.84177223       6.50141249      10.02489516       0.40295687      -0.24966524      -0.24296587       0.00365968      -0.00680788      -0.00768835       0.38294240
H        3.22302497       7.39238907       8.35507155       0.21637109      -0.15419958      -0.25088934      -0.00061763      -0.00038558      -0.01497814       0.38404432
18
Lattice="15.108652899924854 0.0 0.0 0.0 15.108652899924854 0.0 0.0 0.0 15.108652899924854" Properties=species:S:1:pos:R:3:momenta:R:3:forces:R:3:charge:R:1 energy=-1060.2685046079043 free_energy=-1060.2685046079043 dipole="-0.40266784565481156 0.11215889323633066 -0.2548831061215346" stress="0.0 0.0 0.0 0.0 0.0 0.0 0.0 0.0 0.0" pbc="T T T"
H        5.44268554       8.18809901       5.95708208       0.23917494       0.14895508       0.02547043       0.01777196       0.01747611      -0.00894542       0.05554225
H        7.59638605       8.65162205       4.82370641      -0.06369099      -0.04878809      -0.17830769       0.00770071      -0.00419959       0.00003296       0.04406279
C        8.77744463       7.45830241       7.77585400       0.90454025       0.18451902      -0.15585182      -0.00530162       0.03601052       0.01112244      -0.03450261
C       10.08079338       7.20750907       8.44510762      -0.85277283      -0.55638275       1.02794635      -0.00062023      -0.02055809      -0.00735815       0.58079924
O        9.95540361       6.63685853       9.64899241      -0.78101752       0.77772460      -0.14286795       0.00871401       0.01974179       0.01169922      -0.50718596
O       11.15191174       7.48245631       7.96915432       1.01899922      -0.89045841      -0.29146370       0.00064456       0.00006195      -0.00765201      -0.53201121
C        6.36874824       7.46932761       7.75638419       0.23464878      -0.05303072      -0.77461828      -0.00611881      -0.00051160       0.00816665      -0.03481614
C        5.09877652       7.19937752       8.48057696      -0.47494687       0.90481787      -0.25443968       0.00333940       0.01629949       0.00646282       0.58033785
O        4.00747539       7.57487300       7.80129399      -0.20620581      -0.16220126      -0.01392727       0.00533445      -0.00573249       0.00294734      -0.50977912
O        5.03736924       6.70296540       9.57508718      -0.08823008      -0.75152809       0.68539215      -0.00940555      -0.00487761       0.01288824      -0.52952229
H        9.73316296       8.19807888       6.00443173       0.36591717      -0.05938736       0.03481951       0.01297169      -0.01885447       0.00365526       0.05993227