18
Lattice="15.108652899924854 0.0 0.0 0.0 15.108652899924854 0.0 0.0 0.0 15.108652899924854" Properties=species:S:1:pos:R:3:momenta:R:3:forces:R:3:charge:R:1 energy=-1059.928899977026 free_energy=-1059.928899977026 dipole="-0.48649806289365355 0.18386682947534494 -0.19406814630446603" stress="0.0 0.0 0.0 0.0 0.0 0.0 0.0 0.0 0.0" pbc="T T T"
H        5.35464054       8.22190409       6.12246503      -0.10866495       0.16306385      -0.05917154       0.30168947      -0.03848537      -0.09011856       0.05410973
H        7.41158839       8.54384928       4.77183283       0.09070884       0.23141120       0.15171878       0.10232831       0.10503208       0.47633218       0.04300047
C        8.81089770       7.60107042       7.74417017       0.69045654       0.18902651      -0.19252595      -0.64449520       0.11066453      -0.32697092      -0.03774784
C       10.08327918       7.25624975       8.42543437      -1.25346777      -0.61494685       0.63465177      -0.20247237      -0.42639634      -0.32612684       0.58518324
O        9.81815726       6.63834161       9.58041134      -1.10774029       0.81187068      -0.01307625       0.02149889       0.17399622       0.65211113      -0.51481384
O       11.19079553       7.39839820       7.99207708       0.04177614      -0.37354032      -0.94128627       0.26775042       0.38007425      -0.04459783      -0.52409569
C        6.36935848       7.54459339       7.87565621      -0.70405775       0.65975553       0.07758973       0.40250839       0.20130427      -0.39929847      -0.03604351
C        5.09284095       7.13810713       8.54528672      -0.42207978       0.44482860      -1.30676313       0.55411271       0.57934777      -0.75798349       0.58347520
O        4.02044671       7.62321149       7.88384656      -0.38021401      -1.20017330       0.70882544       0.20091539      -0.49807474       0.27157981      -0.51483513
O        5.03704800       6.43025792       9.50493952       0.59176261      -0.70155705      -0.51831950      -0.29833579      -0.25129699       0.34802003      -0.51660953
H        9.67657148       8.26566023       5.82553935      -0.16618620       0.24740762       0.16528615      -0.68066464      -0.14146174       0.67085407       0.05575089
H        7.70125903       6.85056931       9.41689866      -0.43355976      -0.12814659      -0.12848208      -0.26398130       0.09632994       0.05740157       0.07353270
C        8.75622219       8.09525843       6.42908090       0.89910549      -0.03563438       0.25624550      -0.15202626      -0.15129173      -0.37405782       0.00527600
C        7.62167336       7.31148705       8.44082958       0.77560743      -0.20828456       0.04039730      -0.00431659      -0.00020943      -0.24586854       0.00507963
C        7.49473299       8.28161988       5.83344241       0.18482651       0.40381618       0.27551434       0.38128076      -0.14185828       0.21692047      -0.02618453
C        6.33585808       8.04828833       6.56782440       1.19656089       0.15027706       0.97299701      -0.20410584       0.07128671      -0.20776299      -0.00104695
H       10.56330663       6.63543385      10.19074495       0.25165649       0.12729735      -0.03528362       0.43798740      -0.20700045      -0.11612251       0.38253751
H        3.24101103       7.12426855       8.16557366      -0.14649043      -0.16647153      -0.08831769      -0.21967376       0.13803929       0.19568870       0.38343165
18
Lattice="15.108652899924854 0.0 0.0 0.0 15.108652899924854 0.0 0.0 0.0 15.108652899924854" Properties=species:S:1:pos:R:3:momenta:R:3:forces:R:3:charge:R:1 energy=-1060.1340209111177 free_energy=-1060.1340209111177 dipole="-0.45076290742492303 0.13707848795991462 -0.23887497055734247" stress="0.0 0.0 0.0 0.0 0.0 0.0 0.0 0.0 0.0" pbc="T T T"
H        5.36767551       8.22943995       6.05751441      -0.10866495       0.16306385      -0.05917154      -0.18248048       0.05611573      -0.06849586       0.05699814
H        7.44365834       8.59618261       4.80766475       0.09070884       0.23141120       0.15171878       0.05525590       0.14174611      -0.10995507       0.04411823
C        8.78671755       7.53742067       7.73619920       0.69045654       0.18902651      -0.19252595      -0.24142451      -0.11170348       0.07090104      -0.03255971
C       10.06380138       7.21952547       8.41797221      -1.25346777      -0.61494685       0.63465177       0.52393175       0.41627905       0.18953609       0.58216098
O        9.84842342       6.70754483       9.63877330      -1.10774029       0.81187068      -0.01307625       0.06733195      -0.10261630       0.15536102      -0.51069848
O       11.17024713       7.44957458       7.99763438       0.04177614      -0.37354032      -0.94128627      -0.28255613      -0.13716432      -0.06553567      -0.52904830
C        6.37695917       7.57487931       7.83825103      -0.70405775       0.65975553       0.07758973      -0.17300044      -0.30049318       0.15023902      -0.03502872
C        5.12877087       7.14033156       8.52468184      -0.42207978       0.44482860      -1.30676313      -0.24498600       0.16840644      -0.41476598       0.58235612
O        4.04294761       7.55405426       7.85500227      -0.38021401      -1.20017330       0.70882544      -0.22282764       0.04964163      -0.09872819      -0.51398063
O        5.04959670       6.44445788       9.49643816       0.59176261      -0.70155705      -0.51831950       0.23638047      -0.08397367       0.31857296      -0.52409247
H        9.62983881       8.25151553       5.91419209      -0.16618620       0.24740762       0.16528615       0.25801194      -0.05980454      -0.20008465       0.05712839
H        7.63788680       6.87937184       9.41847782      -0.43355976      -0.12814659      -0.12848208      -0.14645465      -0.02140083       0.10968512       0.07293143
C        8.71490369       8.03491623       6.43899334       0.89910549      -0.03563438       0.25624550       0.19616805       0.09468225      -0.02637928       0.00288617
C        7.60473046       7.30245757       8.42471675       0.77560743      -0.20828456       0.04039730      -0.25234635      -0.12348664       0.14168454       0.00496214
C        7.48880402       8.27069286       5.83635846       0.18482651       0.40381618       0.27551434       0.24914924       0.08656174      -0.05274838      -0.02530377
C        6.31867731       8.06213533       6.53489164       1.19656089       0.15027706       0.97299701       0.01392160      -0.11448718       0.03385037       0.00204510
H       10.66867543       6.58812088      10.14503041       0.25165649       0.12729735      -0.03528362       0.07638820       0.01824508      -0.27034483       0.38259560
H        3.23737332       7.16594757       8.23326170      -0.14649043      -0.16647153      -0.08831769       0.06953711       0.02345210       0.13720774       0.38252980
18
Lattice="15.108652899924854 0.0 0.0 0.0 15.108652899924854 0.0 0.0 0.0 15.108652899924854" Properties=species:S:1:pos:R:3:momenta:R:3:forces:R:3:charge:R:1 energy=-1060.2312566534451 free_energy=-1060.2312566534451 dipole="-0.4446879927395553 0.1340266767377019 -0.2513055243713089" stress="0.0 0.0 0.0 0.0 0.0 0.0 0.0 0.0 0.0" pbc="T T T"
H        5.37332618       8.24105390       6.02592926      -0.10866495       0.16306385      -0.05917154       0.07824891      -0.00615647      -0.05054220       0.05593635
H        7.48186443       8.66182667       4.82380501       0.09070884       0.23141120       0.15171878       0.14064060       0.06065759      -0.02834788       0.04381631
C        8.75312280       7.50702602       7.76323630       0.69045654       0.18902651      -0.19252595       0.12744638       0.17252424       0.14123198      -0.03413832
C       10.05352155       7.25870707       8.45303919      -1.25346777      -0.61494685       0.63465177      -0.02979005      -0.10769296      -0.10540473       0.57998761
O        9.89742246       6.74755894       9.68454226      -1.10774029       0.81187068      -0.01307625       0.08196095       0.02901722      -0.13378212      -0.50857979
O       11.13850035       7.46721265       7.97438309       0.04177614      -0.37354032      -0.94128627      -0.10964426       0.01518066       0.00242087      -0.52994284
C        6.34990037       7.52360029       7.78961757      -0.70405775       0.65975553       0.07758973       0.07241356      -0.08448125       0.03846500      -0.03449355
C        5.10390420       7.13405548       8.47862240      -0.42207978       0.44482860      -1.30676313      -0.02682684      -0.11579371       0.14638413       0.58047061
O        3.99566042       7.51842593       7.83574306      -0.38021401      -1.20017330       0.70882544      -0.05521470      -0.03551008       0.06950056      -0.50939973
O        5.08788336       6.49368997       9.49836437       0.59176261      -0.70155705      -0.51831950      -0.23080481       0.06206101       0.04411300      -0.53109235
H        9.65856905       8.21521861       5.92763042      -0.16618620       0.24740762       0.16528615       0.04724264      -0.07241463       0.13384463       0.05868158
H        7.55277136       6.88771940       9.45273123      -0.43355976      -0.12814659      -0.12848208      -0.01885564      -0.03320610      -0.13200534       0.07438616
C        8.73272305       8.01779625       6.45861368       0.89910549      -0.03563438       0.25624550      -0.03566810      -0.01889471       0.05964701       0.00376136
C        7.55694911       7.26345883       8.43324701       0.77560743      -0.20828456       0.04039730       0.07349124       0.06959315      -0.11637530       0.00843915
C        7.52114569       8.28264811       5.83738300       0.18482651       0.40381618       0.27551434      -0.03732258      -0.01268471      -0.05700972      -0.02479811
C        6.32855711       8.04108123       6.49934940       1.19656089       0.15027706       0.97299701      -0.02382708       0.01905765      -0.04934609       0.00024367
H       10.77233132       6.55953459      10.06187178       0.25165649       0.12729735      -0.03528362      -0.00405598       0.05553152      -0.00180930       0.38257146
H        3.22153473       7.18795498       8.31794470      -0.14649043      -0.16647153      -0.08831769      -0.04943425       0.00321158       0.03901549       0.38415042
18
Lattice="15.108652899924854 0.0 0.0 0.0 15.108652899924854 0.0 0.0 0.0 15.108652899924854" Properties=species:S:1:pos:R:3:momenta:R:3:forces:R:3:charge:R:1 energy=-1060.2560901406114 free_energy=-1060.2560901406114 dipole="-0.4170135191326781 0.12281367102468986 -0.24777318712541171" stress="0.0 0.0 0.0 0.0 0.0 0.0 0.0 0.0 0.0" pbc="T T T"
H        5.38493691       8.24293690       6.00188060      -0.10866495       0.16306385      -0.05917154       0.04311734      -0.03509446      -0.02126383       0.05518660
H        7.52604862       8.69116006       4.82564182       0.09070884       0.23141120       0.15171878       0.00824215      -0.05409293       0.08056265       0.04419885
C        8.75063356       7.53104077       7.78106695       0.69045654       0.18902651      -0.19252595      -0.05827999      -0.07449656      -0.02880318      -0.03411841
C       10.05198637       7.26356559       8.44923981      -1.25346777      -0.61494685       0.63465177      -0.00401510       0.04335931      -0.03869239       0.58075594
O        9.91969821       6.75160448       9.67947301      -1.10774029       0.81187068      -0.01307625       0.02494370      -0.02456491      -0.04897723      -0.50739353
O       11.12726519       7.47402019       7.95115179       0.04177614      -0.37354032      -0.94128627       0.02123474      -0.00848332      -0.03363351      -0.53163098
C        6.33968045       7.49445770       7.77468181      -0.70405775       0.65975553       0.07758973      -0.03380154       0.03296487      -0.00668633      -0.03486384
C        5.08634860       7.11791277       8.48294066      -0.42207978       0.44482860      -1.30676313      -0.00188129       0.03111113       0.00359452       0.58018503
O        3.97493118       7.50112091       7.84237672      -0.38021401      -1.20017330       0.70882544       0.00236985      -0.02951567      -0.00869777      -0.50931750
O        5.05230072       6.51414650       9.52401215       0.59176261      -0.70155705      -0.51831950       0.02044541       0.04604553      -0.02330848      -0.52951373
H        9.67909093       8.18886593       5.96113608      -0.16618620       0.24740762       0.16528615       0.00473473       0.02387356       0.03269626       0.05933704
H        7.52846295       6.87734481       9.43747844      -0.43355976      -0.12814659      -0.12848208       0.04293900      -0.06124906       0.03762284       0.07275537
C        8.73649884       8.01788572       6.47034294       0.89910549      -0.03563438       0.25624550      -0.01340725       0.04638188       0.00228367       0.00342494
C        7.54822402       7.26336827       8.42619014       0.77560743      -0.20828456       0.04039730      -0.06466304      -0.00290482      -0.00354799       0.00756660
C        7.53172683       8.28394212       5.83283947       0.18482651       0.40381618       0.27551434       0.01943742       0.01262110       0.08232166      -0.02465582
C        6.33216085       8.03276875       6.48683413       1.19656089       0.15027706       0.97299701       0.00416742      -0.00842869      -0.03693221       0.00105499
H       10.80344602       6.56727512      10.03721744       0.25165649       0.12729735      -0.03528362      -0.00147673       0.03654774       0.01876373       0.38295099
H        3.20624728       7.19515235       8.35154979      -0.14649043      -0.16647153      -0.08831769      -0.01410681       0.02592530      -0.00730242       0.38407745
18
Lattice="15.108652899924854 0.0 0.0 0.0 15.108652899924854 0.0 0.0 0.0 15.108652899924854" Properties=species:S:1:pos:R:3:momenta:R:3:forces:R:3:charge:R:1 energy=-1060.261873332691 free_energy=-1060.261873332691 dipole="-0.41350867577952416 0.13077654944852074 -0.23503836418765225" stress="0.0 0.0 0.0 0.0 0.0 0.0 0.0 0.0 0.0" pbc="T T T"
H        5.39487450       8.23326798       5.98124800      -0.10866495       0.16306385      -0.05917154      -0.02228057      -0.02840536      -0.00527041       0.05512512
H        7.54138391       8.69034921       4.84064438       0.09070884       0.23141120       0.15171878      -0.02225181       0.02534526      -0.05965124       0.04393344
C        8.74212745       7.52029822       7.78443662       0.69045654       0.18902651      -0.19252595       0.01211126       0.00101848       0.01177656      -0.03449783
C       10.05138144       7.26337253       8.43825894      -1.25346777      -0.61494685       0.63465177       0.02965492      -0.04099597       0.03357752       0.58103952
O        9.93191357       6.74912528       9.66707231      -1.10774029       0.81187068      -0.01307625      -0.01345336      -0.03781987       0.06028722      -0.50723675
O       11.12201855       7.47972327       7.93204688       0.04177614      -0.37354032      -0.94128627      -0.01651715       0.01572411      -0.04083309      -0.53208183
C        6.33112288       7.49410011       7.77202081      -0.70405775       0.65975553       0.07758973       0.01339834      -0.01745848       0.03054530      -0.03455272
C        5.07865545       7.12210555       8.48190875      -0.42207978       0.44482860      -1.30676313      -0.01238036       0.01352507      -0.01872322       0.58049092
O        3.96506620       7.48900485       7.83681295      -0.38021401      -1.20017330       0.70882544      -0.00628651       0.01822096      -0.01894083      -0.50921836
O        5.04899742       6.53350335       9.53122949       0.59176261      -0.70155705      -0.51831950       0.00145264       0.02565881       0.03688627      -0.52988580
H        9.68560336       8.19136165       5.98332619      -0.16618620       0.24740762       0.16528615      -0.00696631       0.05202022       0.00627735       0.06009237
H        7.52845198       6.85924175       9.43577407      -0.43355976      -0.12814659      -0.12848208      -0.02651476      -0.02631502       0.00192836       0.07256190
C        8.73784051       8.02323955       6.48305538       0.89910549      -0.03563438       0.25624550       0.01222234      -0.00255821      -0.01123065       0.00298875
C        7.53741551       7.25657961       8.42736728       0.77560743      -0.20828456       0.04039730       0.03573828      -0.03647334       0.00782997       0.00795437
C        7.53712922       8.28866255       5.84557244       0.18482651       0.40381618       0.27551434       0.00109726      -0.00868629      -0.03896855      -0.02477003
C        6.33273472       8.02760059       6.48253133       1.19656089       0.15027706       0.97299701       0.00713533       0.01422355       0.03667208       0.00120033
H       10.81565179       6.58108283      10.03201870       0.25165649       0.12729735      -0.03528362       0.01622690       0.02978316      -0.01181959       0.38278809
H        3.19731907       7.20595004       8.36072923      -0.14649043      -0.16647153      -0.08831769      -0.00238644       0.00319292      -0.02034306       0.38406849
18
Lattice="15.108652899924854 0.0 0.0 0.0 15.108652899924854 0.0 0.0 0.0 15.108652899924854" Properties=species:S:1:pos:R:3:momenta:R:3:forces:R:3:charge:R:1 energy=-1060.2654871911104 free_energy=-1060.2654871911104 dipole="-0.4052453756227857 0.1341220541256516 -0.23169413972155814" stress="0.0 0.0 0.0 0.0 0.0 0.0 0.0 0.0 0.0" pbc="T T T"
H        5.39850954       8.21435998       5.97566147      -0.10866495       0.16306385      -0.05917154      -0.01097212       0.01020751       0.03557159       0.05480159
H        7.53919366       8.69188614       4.83647168       0.09070884       0.23141120       0.15171878      -0.00456030      -0.00965552       0.03948453       0.04406010
C        8.74059817       7.51111477       7.78620892       0.69045654       0.18902651      -0.19252595      -0.00210799      -0.00013430       0.00086707      -0.03470084
C       10.05199892       7.25344697       8.43672317      -1.25346777      -0.61494685       0.63465177      -0.03593190       0.00378815      -0.03199735       0.58069735
O        9.94125455       6.73643207       9.66667057      -1.10774029       0.81187068      -0.01307625       0.04159930       0.04234449      -0.05213549      -0.50705059
O       11.11456445       7.48142656       7.91806294       0.04177614      -0.37354032      -0.94128627       0.01807558      -0.02812208       0.07780972      -0.53193593
C        6.33202230       7.49141179       7.77531699      -0.70405775       0.65975553       0.07758973      -0.00114305      -0.01069997      -0.02523917      -0.03468099
C        5.07433891       7.13032022       8.48285447      -0.42207978       0.44482860      -1.30676313       0.01123300       0.00033328       0.03489516       0.58026340
O        3.96215429       7.48816332       7.82907138      -0.38021401      -1.20017330       0.70882544       0.02681418       0.00430989      -0.00586287      -0.50915774
O        5.04289023       6.55939954       9.54256762       0.59176261      -0.70155705      -0.51831950      -0.02735240       0.03637543      -0.00797922      -0.53010046
H        9.68677037       8.21606955       5.99753751      -0.16618620       0.24740762       0.16528615      -0.00201986       0.01692539       0.00243081       0.06034699
H        7.52370311       6.83464808       9.43531030      -0.43355976      -0.12814659      -0.12848208      -0.00059547      -0.00856962      -0.03328633       0.07269267
C        8.73784316       8.02869887       6.48806798       0.89910549      -0.03563438       0.25624550      -0.00905597      -0.00256338       0.02251526       0.00324374
C        7.53756830       7.24116553       8.42954687       0.77560743      -0.20828456       0.04039730      -0.02059355       0.00230350      -0.01967385       0.00821913
C        7.53901635       8.28918003       5.84393386       0.18482651       0.40381618       0.27551434      -0.01301487       0.00658128       0.01762730      -0.02461768
C        6.33625726       8.02696220       6.48605109       1.19656089       0.15027706       0.97299701      -0.01204378      -0.05634008      -0.03993344       0.00098404
H       10.82969850       6.60035901      10.03260932       0.25165649       0.12729735      -0.03528362       0.02353842      -0.01181634       0.00467670       0.38287512
H        3.19130545       7.21352431       8.35338762      -0.14649043      -0.16647153      -0.08831769       0.01813081       0.00473238      -0.01977043       0.38406009
18
Lattice="15.108652899924854 0.0 0.0 0.0 15.108652899924854 0.0 0.0 0.0 15.108652899924854" Properties=species:S:1:pos:R:3:momenta:R:3:forces:R:3:charge:R:1 energy=-1060.2684750054948 free_energy=-1060.2684750054948 dipole="-0.40619286716834324 0.12993732833268254 -0.24264778007622576" stress="0.0 0.0 0.0 0.0 0.0 0.0 0.0 0.0 0.0" pbc="T T T"
H        5.39449105       8.20118830       5.97737341      -0.10866495       0.16306385      -0.05917154      -0.01009499       0.00036838      -0.01550376       0.05522916
H        7.53860335       8.69588503       4.84341536       0.09070884       0.23141120       0.15171878       0.00487377       0.00801422       0.01121660       0.04415284
C        8.73873009       7.50161009       7.78789944       0.69045654       0.18902651      -0.19252595       0.01711860      -0.00586316      -0.01174816      -0.03449232
C       10.05276593       7.24657252       8.43389187      -1.25346777      -0.61494685       0.63465177       0.03953499       0.03312499       0.03111956       0.58072937
O        9.95707877       6.73490887       9.66570351      -1.10774029       0.81187068      -0.01307625      -0.03338371      -0.00503889       0.04123268      -0.50671543
O       11.11566080       7.47883077       7.91778868       0.04177614      -0.37354032      -0.94128627       0.01337085       0.00756619      -0.04378079      -0.53295563
C        6.33001915       7.47903160       7.77104985      -0.70405775       0.65975553       0.07758973       0.00776470      -0.03070805      -0.00089923      -0.03484748
C        5.07111637       7.13957020       8.48568417      -0.42207978       0.44482860      -1.30676313      -0.00053956      -0.00594310      -0.01915452       0.58034156
O        3.96502734       7.48825506       7.81744543      -0.38021401      -1.20017330       0.70882544      -0.00298442      -0.00354848      -0.00957145      -0.50931725
O        5.02992123       6.59617321       9.55885714       0.59176261      -0.70155705      -0.51831950      -0.00230436       0.01878420       0.01482958      -0.52983482
H        9.68558718       8.24298280       6.01494248      -0.16618620       0.24740762       0.16528615      -0.01244658       0.00039631      -0.00121757       0.06042801
H        7.51495655       6.80878609       9.42518195      -0.43355976      -0.12814659      -0.12848208       0.01785148      -0.00862262       0.01826691       0.07240541
C        8.73608795       8.03450456       6.49655309       0.89910549      -0.03563438       0.25624550      -0.00359537       0.01065857      -0.01407569       0.00326615
C        7.53376503       7.22492884       8.42469667       0.77560743      -0.20828456       0.04039730       0.02623515      -0.01904662      -0.00007152       0.00804719
C        7.53793906       8.28822980       5.84789788       0.18482651       0.40381618       0.27551434      -0.00977215      -0.02860767       0.00215963      -0.02459003
C        6.33456439       8.00878746       6.48002212       1.19656089       0.15027706       0.97299701      -0.01414117       0.02998723       0.02509516       0.00110841
H       10.85170666       6.61440371      10.02522774       0.25165649       0.12729735      -0.03528362      -0.02474274      -0.01318391      -0.01793826       0.38296229
H        3.19166664       7.22392000       8.34242298      -0.14649043      -0.16647153      -0.08831769      -0.01274448       0.01166242      -0.00995918       0.38408256
18
Lattice="15.108652899924854 0.0 0.0 0.0 15.108652899924854 0.0 0.0 0.0 15.108652899924854" Properties=species:S:1:pos:R:3:momenta:R:3:forces:R:3:charge:R:1 energy=-1060.269712079473 free_energy=-1060.269712079473 dipole="-0.4020368885183231 0.12571091693056502 -0.24649275888680516" stress="0.0 0.0 0.0 0.0 0.0 0.0 0.0 0.0 0.0" pbc="T T T"
H        5.39135949       8.19625590       5.97799822      -0.10866495       0.16306385      -0.05917154       0.01160205       0.00336622       0.01436382       0.05552133
H        7.53719658       8.69812139       4.84922007       0.09070884       0.23141120       0.15171878      -0.00752500       0.00897513      -0.01624091       0.04405035
C        8.74179350       7.49834133       7.78732756       0.69045654       0.18902651      -0.19252595      -0.01185656       0.01318499       0.01009890      -0.03447632
C       10.05694391       7.25044208       8.43508196      -1.25346777      -0.61494685       0.63465177      -0.00996845      -0.02307665      -0.01840881       0.58060268
O        9.95835124       6.73892274       9.66737186      -1.10774029       0.81187068      -0.01307625       0.00517715       0.02679597      -0.00591942      -0.50671994
O       11.11906875       7.47780364       7.91494671       0.04177614      -0.37354032      -0.94128627      -0.00622052       0.01274539       0.00922707      -0.53250306
C        6.33211826       7.46713013       7.77000749      -0.70405775       0.65975553       0.07758973      -0.01023410       0.00661009       0.01319894      -0.03482138
C        5.07029949       7.14146851       8.48566322      -0.42207978       0.44482860      -1.30676313      -0.00887275      -0.00572816       0.01280450       0.58024721
O        3.96728216       7.48700155       7.80965310      -0.38021401      -1.20017330       0.70882544       0.00305303      -0.01780983      -0.01345559      -0.50965565
O        5.02326461       6.61662454       9.56780365       0.59176261      -0.70155705      -0.51831950       0.00031432       0.00435238       0.00749016      -0.52974176
H        9.68156018       8.25558280       6.01841750      -0.16618620       0.24740762       0.16528615       0.00341966      -0.00173054      -0.01370560       0.06032613
H        7.51956540       6.79605905       9.42341530      -0.43355976      -0.12814659      -0.12848208       0.01557081      -0.00653110      -0.00638383       0.07234082
C        8.73419355       8.03700911       6.49856978       0.89910549      -0.03563438       0.25624550       0.00556694      -0.01257687      -0.00128261       0.00316339
C        7.53751288       7.21293993       8.42250519       0.77560743      -0.20828456       0.04039730      -0.01196581      -0.00214571       0.00306652       0.00814259
C        7.53473046       8.28358270       5.85019959       0.18482651       0.40381618       0.27551434       0.00737158       0.02778736      -0.00000256      -0.02467489
C        6.33159671       8.00558752       6.48256056       1.19656089       0.15027706       0.97299701       0.01492556      -0.03047667      -0.00569710       0.00119758
H       10.85345350       6.61382073      10.02257609       0.25165649       0.12729735      -0.03528362      -0.00433269      -0.01876290       0.01373614       0.38301240
H        3.18939685       7.23187530       8.33273590      -0.14649043      -0.16647153      -0.08831769       0.00397477       0.01502090      -0.00288962       0.38398853
18
Lattice="15.108652899924854 0.0 0.0 0.0 15.108652899924854 0.0 0.0 0.0 15.108652899924854" Properties=species:S:1:pos:R:3:momenta:R:3:forces:R:3:charge:R:1 energy=-1060.270337179325 free_energy=-1060.270337179325 dipole="-0.40284016642193515 0.11828312685781729 -0.24797226091839086" stress="0.0 0.0 0.0 0.0 0.0 0.0 0.0 0.0 0.0" pbc="T T T"
H        5.39278351       8.19397061       5.98193054      -0.10866495       0.16306385      -0.05917154      -0.00425583      -0.00272293       0.00249411       0.05544740
H        7.53425462       8.70138953       4.84989607       0.09070884       0.23141120       0.15171878      -0.00715089       0.00163395       0.00930514       0.04409144
C        8.74172663       7.49820355       7.78668889       0.69045654       0.18902651      -0.19252595       0.00559365      -0.00712166      -0.00804643      -0.03463612
C       10.05772210       7.25135160       8.43367112      -1.25346777      -0.61494685       0.63465177      -0.00784775       0.00831087       0.00372786       0.58072414
O        9.95832104       6.74569629       9.66835705      -1.10774029       0.81187068      -0.01307625      -0.00246690      -0.00646946      -0.00429430      -0.50691195
O       11.11953038       7.47945539       7.91341060       0.04177614      -0.37354032      -0.94128627      -0.00586072      -0.00499460       0.00430999      -0.53233642
C        6.33251708       7.46111497       7.77166516      -0.70405775       0.65975553       0.07758973       0.00893840       0.00101752      -0.00322401      -0.03479900
C        5.06893758       7.14105561       8.48737849      -0.42207978       0.44482860      -1.30676313       0.00649496      -0.00020278      -0.00087018       0.58039938
O        3.96944148       7.48088897       7.80260784      -0.38021401      -1.20017330       0.70882544       0.00136826      -0.01272943      -0.00327056      -0.50974935
O        5.01839162       6.62885430       9.57528056       0.59176261      -0.70155705      -0.51831950      -0.00370185       0.00640834      -0.00137240      -0.52943607
H        9.67987965       8.26080870       6.01682374      -0.16618620       0.24740762       0.16528615       0.00876974      -0.00836979       0.00082214       0.06024931