18
Lattice="15.108652899924854 0.0 0.0 0.0 15.108652899924854 0.0 0.0 0.0 15.108652899924854" Properties=species:S:1:pos:R:3:momenta:R:3:forces:R:3:charge:R:1 energy=-1060.1504455493682 free_energy=-1060.1504455493682 dipole="-0.3911384434587227 0.27028822153520937 -0.13441325815955063" stress="0.0 0.0 0.0 0.0 0.0 0.0 0.0 0.0 0.0" pbc="T T T"
H        5.39568522       8.07654139       6.05229953       0.04202344      -0.15846301      -0.08531824      -0.06914789       0.10185494      -0.26621785       0.05750908
H        7.53262362       8.58625173       4.83404721       0.09041491       0.14893018      -0.07858630      -0.06209026       0.05296855      -0.07117487       0.04488906
C        8.77659943       7.47774151       7.79060065      -1.35624467       0.10060374      -0.65233990      -0.03549707      -0.04219371       0.24888769      -0.03355045
C       10.10031105       7.25097002       8.44150812       0.48315039       0.78554222      -0.75160969       0.04834295       0.11139652      -0.06248170       0.58138455
O       10.02283577       6.56904483       9.59621549      -0.12762261      -0.39936866       0.72304156      -0.10959659       0.33006617       0.05541741      -0.51024710
O       11.13899900       7.65912458       7.98876070       0.28560255      -1.42584611       0.97574221      -0.03855397      -0.04836377       0.14516041      -0.52771346
C        6.37103337       7.46760076       7.83033609      -0.05919167      -0.02463264       0.58263829       0.13288318       0.20031181      -0.14992282      -0.03430782
C        5.05810859       7.21903074       8.48381258       1.32329508      -0.10424398       0.65291857       0.25825073      -0.28384731       0.14741762       0.57976398
O        4.03081651       7.80499783       7.84752027      -0.11118567      -0.19521255       0.51462458       0.03344165      -0.04401054       0.38738062      -0.50997248
O        4.91776113       6.53700232       9.46590769      -0.25665232       0.86647707      -1.13184229      -0.12815989       0.20061811       0.02994108      -0.52773189
H        9.65709716       8.22544775       5.98117795       0.13169305      -0.08484840      -0.27917148       0.32421739      -0.05398299      -0.04313715       0.05909696
H        7.59934898       6.91693071       9.51706684      -0.05303480       0.02457684       0.06000132      -0.01131584      -0.06562568      -0.08541215       0.06826118
C        8.73857372       7.98886755       6.49129150      -0.44596818       0.81769887      -0.04345273       0.12767400      -0.04035512       0.09290331       0.00295044
C        7.58944730       7.24897281       8.48371815      -0.12920979      -0.16785661      -0.10020256      -0.37733968      -0.09900149      -0.16883144       0.00825125
C        7.53731140       8.21144471       5.84780419      -0.05574658      -0.25164779      -0.08171981      -0.04728169      -0.06378204       0.06100043      -0.02370270
C        6.35871705       7.93701753       6.51622480      -0.00336723       0.53368329      -0.32308504      -0.06076257      -0.03560627       0.07759664      -0.00201625
H       10.84399075       6.66274715      10.10885271       0.29362626      -0.12667985       0.19144312       0.02962263      -0.16213056      -0.27323215       0.38276408
H        3.23035312       7.65676177       8.37992073      -0.05158214      -0.33871261      -0.17308160      -0.01468707      -0.05831662      -0.12529507       0.38437157
18
Lattice="15.108652899924854 0.0 0.0 0.0 15.108652899924854 0.0 0.0 0.0 15.108652899924854" Properties=species:S:1:pos:R:3:momenta:R:3:forces:R:3:charge:R:1 energy=-1060.2254511285762 free_energy=-1060.2254511285762 dipole="-0.3869740098215082 0.16972943294301732 -0.23080507849017162" stress="0.0 0.0 0.0 0.0 0.0 0.0 0.0 0.0 0.0" pbc="T T T"
H        5.40113523       8.10232374       5.99110765       0.04202344      -0.15846301      -0.08531824       0.13083501       0.01256502       0.04110671       0.05593427
H        7.52347923       8.58680241       4.84173363       0.09041491       0.14893018      -0.07858630       0.06016612       0.02748108      -0.09911773       0.04358699
C        8.77041105       7.48485096       7.79508080      -1.35624467       0.10060374      -0.65233990       0.01994208       0.05595029      -0.01677869      -0.03402777
C       10.08869115       7.27766139       8.45205750       0.48315039       0.78554222      -0.75160969      -0.03816938       0.09554473       0.04119860       0.58086155
O        9.98805026       6.64478779       9.62495976      -0.12762261      -0.39936866       0.72304156      -0.02083985       0.04048198       0.09052358      -0.50708461
O       11.14318247       7.65422899       8.00806234       0.28560255      -1.42584611       0.97574221      -0.09568461      -0.05026328      -0.02316046      -0.53160706
C        6.35745454       7.47381286       7.81632191      -0.05919167      -0.02463264       0.58263829       0.00320480      -0.14631990      -0.03060649      -0.03307941
C        5.06985053       7.20180342       8.51661034       1.32329508      -0.10424398       0.65291857      -0.02493727       0.12191794       0.04105733       0.58152962
O        4.05109869       7.81188667       7.89780351      -0.11118567      -0.19521255       0.51462458      -0.12601688       0.02883765      -0.07892167      -0.51109543
O        4.91898418       6.54445681       9.51233200      -0.25665232       0.86647707      -1.13184229       0.20012830       0.05364795      -0.09251174      -0.52590481
H        9.70183208       8.19719716       6.00332789       0.13169305      -0.08484840      -0.27917148      -0.05527831      -0.02165977      -0.01690984       0.06002958
H        7.57929283       6.89376022       9.48403145      -0.05303480       0.02457684       0.06000132      -0.05123925      -0.09249564       0.05304700       0.06917163
C        8.75651054       7.98480973       6.49297232      -0.44596818       0.81769887      -0.04345273      -0.06323502       0.01909548      -0.02420406       0.00233841
C        7.57024130       7.23910123       8.45861378      -0.12920979      -0.16785661      -0.10020256       0.01433169      -0.00857728       0.01255447       0.00652227
C        7.54629837       8.20566358       5.85352898      -0.05574658      -0.25164779      -0.08171981      -0.02970504       0.00598677      -0.06134261      -0.02453874
C        6.34792987       7.94398414       6.50047083      -0.00336723       0.53368329      -0.32308504       0.04659828       0.00923349       0.05253874       0.00083837
H       10.86239846       6.61833597      10.04201783       0.29362626      -0.12667985       0.19144312       0.09671018      -0.08584653       0.01571841       0.38314816
H        3.22277242       7.63102862       8.36603269      -0.05158214      -0.33871261      -0.17308160      -0.06681086      -0.06557998       0.09580846       0.38337699
18
Lattice="15.108652899924854 0.0 0.0 0.0 15.108652899924854 0.0 0.0 0.0 15.108652899924854" Properties=species:S:1:pos:R:3:momenta:R:3:forces:R:3:charge:R:1 energy=-1060.245668933473 free_energy=-1060.245668933473 dipole="-0.3953762806145816 0.13311731479001784 -0.2543307924387443" stress="0.0 0.0 0.0 0.0 0.0 0.0 0.0 0.0 0.0" pbc="T T T"
H        5.42081326       8.11589665       5.98103914       0.04202344      -0.15846301      -0.08531824      -0.06878065       0.02250395       0.01690102       0.05478348
H        7.53385355       8.59087411       4.82532951       0.09041491       0.14893018      -0.07858630       0.04472398      -0.04170004       0.03909390       0.04416287
C        8.76081011       7.49870238       7.80280082      -1.35624467       0.10060374      -0.65233990       0.02119706      -0.00690965      -0.00029456      -0.03450931
C       10.07446951       7.29892570       8.46980816       0.48315039       0.78554222      -0.75160969      -0.00775299      -0.03681180      -0.00222319       0.58046187
O        9.98349514       6.68499501       9.65530435      -0.12762261      -0.39936866       0.72304156       0.02595825       0.00380736       0.01654638      -0.50724408
O       11.13013135       7.64426900       8.00577385       0.28560255      -1.42584611       0.97574221       0.02336310       0.00535619      -0.04806821      -0.53236493
C        6.35597859       7.46151965       7.80283147      -0.05919167      -0.02463264       0.58263829      -0.02240564       0.09017167      -0.02711766      -0.03296506
C        5.07220209       7.21728949       8.51371985       1.32329508      -0.10424398       0.65291857      -0.04292019      -0.05126796      -0.00348655       0.58158116
O        4.03187299       7.81130275       7.91148682      -0.11118567      -0.19521255       0.51462458      -0.01141054      -0.03770898      -0.04118248      -0.51091473
O        4.95719293       6.56414860       9.51649872      -0.25665232       0.86647707      -1.13184229       0.00932355       0.03572399       0.02922814      -0.52683956
H        9.70267700       8.18522817       6.00257625       0.13169305      -0.08484840      -0.27917148      -0.04056865       0.01028707       0.02591416       0.05996706
H        7.56222381       6.86506494       9.48036143      -0.05303480       0.02457684       0.06000132      -0.02909581      -0.02606337      -0.02987713       0.07077569
C        8.75429748       7.98658769       6.49254627      -0.44596818       0.81769887      -0.04345273       0.01649013      -0.00598741       0.03496703       0.00284199
C        7.56231795       7.22776461       8.45827778      -0.12920979      -0.16785661      -0.10020256      -0.00144460       0.03498945      -0.01439374       0.00768003
C        7.55143614       8.20579484       5.83976671      -0.05574658      -0.25164779      -0.08171981       0.06354164       0.00634401       0.00610880      -0.02417479
C        6.35796604       7.94739240       6.49532711      -0.00336723       0.53368329      -0.32308504      -0.00345605       0.01918347      -0.08780349       0.00030369
H       10.87894807       6.58334258      10.01902916       0.29362626      -0.12667985       0.19144312      -0.03446122       0.00524481       0.01337270       0.38293236
H        3.20892721       7.60739715       8.38458781      -0.05158214      -0.33871261      -0.17308160       0.05769862      -0.02716275       0.07231488       0.38352226
18
Lattice="15.108652899924854 0.0 0.0 0.0 15.108652899924854 0.0 0.0 0.0 15.108652899924854" Properties=species:S:1:pos:R:3:momenta:R:3:forces:R:3:charge:R:1 energy=-1060.2531159269486 free_energy=-1060.2531159269486 dipole="-0.3872726732963623 0.11619891285261338 -0.23927812020483427" stress="0.0 0.0 0.0 0.0 0.0 0.0 0.0 0.0 0.0" pbc="T T T"
H        5.41067222       8.12961617       5.98025947       0.04202344      -0.15846301      -0.08531824       0.03906398       0.02140941      -0.05210042       0.05535192
H        7.55973828       8.58062164       4.82197567       0.09041491       0.14893018      -0.07858630       0.02076318      -0.00019459      -0.03480405       0.04407581
C        8.75949481       7.50024972       7.80992977      -1.35624467       0.10060374      -0.65233990      -0.03873635       0.01229974       0.00192604      -0.03406663
C       10.07403526       7.29823949       8.47303181       0.48315039       0.78554222      -0.75160969       0.01651740       0.00212898      -0.01846500       0.58080421
O        9.98604278       6.69984216       9.66656272      -0.12762261      -0.39936866       0.72304156       0.01355318      -0.01739385      -0.03081302      -0.50689746
O       11.12601712       7.63504836       7.99268978       0.28560255      -1.42584611       0.97574221      -0.00080093      -0.05526624       0.03516189      -0.53232228
C        6.35121860       7.47748509       7.79084353      -0.05919167      -0.02463264       0.58263829       0.02261081      -0.02448209       0.01979585      -0.03401155
C        5.07166680       7.22009456       8.50603312       1.32329508      -0.10424398       0.65291857       0.06454493       0.03676106      -0.02729960       0.58070567
O        4.01762701       7.78828549       7.90397954      -0.11118567      -0.19521255       0.51462458      -0.00525955      -0.07800527       0.04911933      -0.50995098
O        4.97492954       6.58527785       9.52280434      -0.25665232       0.86647707      -1.13184229      -0.01677740       0.02416662       0.01532843      -0.52785936
H        9.69920079       8.18696663       6.00841599       0.13169305      -0.08484840      -0.27917148       0.06257018       0.01174842       0.01280925       0.06011991
H        7.54279321       6.84699021       9.46619877      -0.05303480       0.02457684       0.06000132      -0.02705727       0.02812171      -0.01383933       0.07078012
C        8.75557409       7.98742475       6.50127888      -0.44596818       0.81769887      -0.04345273      -0.01358412       0.01282742      -0.03121274       0.00288335
C        7.55395230       7.23507727       8.45318679      -0.12920979      -0.16785661      -0.10020256      -0.02140910      -0.04042739      -0.00810139       0.00750266
C        7.55968532       8.20604260       5.83808010      -0.05574658      -0.25164779      -0.08171981      -0.06195907       0.00594280      -0.00718539      -0.02431293
C        6.35642715       7.95672952       6.48027361      -0.00336723       0.53368329      -0.32308504      -0.02232320       0.02812408       0.07520666       0.00040778
H       10.88109874       6.57330525      10.02179349       0.29362626      -0.12667985       0.19144312      -0.01055324       0.03707894       0.01312827       0.38300179
H        3.21943919       7.58919895       8.41972783      -0.05158214      -0.33871261      -0.17308160      -0.02116342      -0.00483975       0.00134522       0.38378797
18
Lattice="15.108652899924854 0.0 0.0 0.0 15.108652899924854 0.0 0.0 0.0 15.108652899924854" Properties=species:S:1:pos:R:3:momenta:R:3:forces:R:3:charge:R:1 energy=-1060.2569400567386 free_energy=-1060.2569400567386 dipole="-0.3839056055437868 0.126792745956621 -0.24015545063332405" stress="0.0 0.0 0.0 0.0 0.0 0.0 0.0 0.0 0.0" pbc="T T T"
H        5.41656998       8.14627101       5.96568517       0.04202344      -0.15846301      -0.08531824      -0.00274525       0.01924501       0.01081205       0.05521371
H        7.57430170       8.57359683       4.81359745       0.09041491       0.14893018      -0.07858630      -0.04288396       0.01568583       0.00068141       0.04416312
C        8.75561792       7.50467710       7.81019390      -1.35624467       0.10060374      -0.65233990       0.03246118      -0.03528048      -0.00420058      -0.03424401
C       10.07234429       7.29477192       8.47139873       0.48315039       0.78554222      -0.75160969      -0.00993748      -0.02608174       0.00374616       0.58086169
O        9.98430099       6.70299224       9.66760970      -0.12762261      -0.39936866       0.72304156      -0.04743396      -0.01890970       0.01113002      -0.50681418
O       11.12823389       7.61570734       7.98978008       0.28560255      -1.42584611       0.97574221      -0.00270579      -0.00530044      -0.03070465      -0.53224897
C        6.34875822       7.48327244       7.78567854      -0.05919167      -0.02463264       0.58263829      -0.02812431      -0.01872952      -0.02004461      -0.03382253
C        5.07574584       7.22166338       8.50703639       1.32329508      -0.10424398       0.65291857      -0.04710285      -0.00460939       0.05879270       0.58053488
O        4.00755014       7.75988965       7.90536587      -0.11118567      -0.19521255       0.51462458      -0.01483190       0.01032962      -0.03916021      -0.50976191
O        4.98849093       6.60562081       9.53702599      -0.25665232       0.86647707      -1.13184229       0.05378585       0.01120571       0.01917564      -0.52931988
H        9.70665500       8.18949570       6.01950903       0.13169305      -0.08484840      -0.27917148      -0.01569755       0.00638953      -0.01232847       0.06028065
H        7.52441744       6.84219801       9.45789419      -0.05303480       0.02457684       0.06000132       0.02487524      -0.00631747       0.01977571       0.07130668
C        8.75480661       7.99118585       6.50068622      -0.44596818       0.81769887      -0.04345273       0.02596041       0.01059022       0.02522923       0.00253079
C        7.54888797       7.23038881       8.44642807      -0.12920979      -0.16785661      -0.10020256       0.00843155       0.04331393       0.00842720       0.00776014
C        7.55973563       8.21073708       5.83466711      -0.05574658      -0.25164779      -0.08171981       0.05226719       0.00499210       0.00558388      -0.02430896
C        6.35478422       7.97118956       6.47872371      -0.00336723       0.53368329      -0.32308504       0.02386511      -0.00826397      -0.04812182       0.00092335
H       10.87913176       6.57990350      10.02458963       0.29362626      -0.12667985       0.19144312      -0.00829860       0.02678690       0.00324919       0.38302696
H        3.21928067       7.57293445       8.44119544      -0.05158214      -0.33871261      -0.17308160      -0.00188486      -0.02504613      -0.01204284       0.38391845
18
Lattice="15.108652899924854 0.0 0.0 0.0 15.108652899924854 0.0 0.0 0.0 15.108652899924854" Properties=species:S:1:pos:R:3:momenta:R:3:forces:R:3:charge:R:1 energy=-1060.259536257014 free_energy=-1060.259536257014 dipole="-0.3948840170655448 0.13765648207468523 -0.23548571907766153" stress="0.0 0.0 0.0 0.0 0.0 0.0 0.0 0.0 0.0" pbc="T T T"
H        5.42363256       8.16278005       5.95881543       0.04202344      -0.15846301      -0.08531824      -0.00658584      -0.01191914       0.00857573       0.05479527
H        7.57220058       8.57566432       4.81026404       0.09041491       0.14893018      -0.07858630       0.01510249       0.02933856       0.03513844       0.04405360
C        8.75506609       7.49936606       7.80838624      -1.35624467       0.10060374      -0.65233990      -0.01077910       0.02310544      -0.02516827      -0.03439832
C       10.06907949       7.28242240       8.46869653       0.48315039       0.78554222      -0.75160969      -0.01294152      -0.00146678      -0.00320685       0.58064281
O        9.97601036       6.69779620       9.66790076      -0.12762261      -0.39936866       0.72304156       0.00894252       0.01867278       0.00666688      -0.50649740
O       11.12629070       7.59620305       7.98431755       0.28560255      -1.42584611       0.97574221      -0.01025879      -0.02114609       0.01136821      -0.53275592
C        6.34552693       7.48415037       7.77969456      -0.05919167      -0.02463264       0.58263829       0.01894694       0.03542492       0.01251415      -0.03424009
C        5.07606563       7.22422185       8.51187395       1.32329508      -0.10424398       0.65291857       0.02344104      -0.00204459      -0.02496218       0.58068011
O        3.99868817       7.73703826       7.90380348      -0.11118567      -0.19521255       0.51462458       0.01289700      -0.00970494       0.00910803      -0.50944846
O        5.00735924       6.62609067       9.55375139      -0.25665232       0.86647707      -1.13184229      -0.01185063       0.03585567       0.00435914      -0.52890926
H        9.71133412       8.19506776       6.02203222       0.13169305      -0.08484840      -0.27917148       0.00153978      -0.00115899      -0.00308988       0.06039444
H        7.52138511       6.84275993       9.45522260      -0.05303480       0.02457684       0.06000132       0.01368421       0.01404848      -0.01070344       0.07159363
C        8.75973784       7.99564053       6.50249611      -0.44596818       0.81769887      -0.04345273      -0.00969520      -0.02194680      -0.03180600       0.00286731
C        7.54561719       7.23505722       8.44420403      -0.12920979      -0.16785661      -0.10020256       0.01416156      -0.03429659      -0.01230634       0.00784001
C        7.56673362       8.21636414       5.83352444      -0.05574658      -0.25164779      -0.08171981      -0.02975203      -0.00493088      -0.00470268      -0.02444332
C        6.35900777       7.97535416       6.47298861      -0.00336723       0.53368329      -0.32308504      -0.01210114      -0.00667810       0.02300064       0.00087323
H       10.87090367       6.59569873      10.03103876       0.29362626      -0.12667985       0.19144312      -0.00610718      -0.01448419       0.02240885       0.38301765
H        3.21497413       7.55482001       8.44805451      -0.05158214      -0.33871261      -0.17308160       0.00135588      -0.02666877      -0.01719441       0.38393471
18
Lattice="15.108652899924854 0.0 0.0 0.0 15.108652899924854 0.0 0.0 0.0 15.108652899924854" Properties=species:S:1:pos:R:3:momenta:R:3:forces:R:3:charge:R:1 energy=-1060.2623102790778 free_energy=-1060.2623102790778 dipole="-0.40051743932500683 0.134116379749262 -0.24005165833123396" stress="0.0 0.0 0.0 0.0 0.0 0.0 0.0 0.0 0.0" pbc="T T T"
H        5.42453160       8.17729064       5.95680587       0.04202344      -0.15846301      -0.08531824      -0.01129128      -0.01458896       0.01768617       0.05489712
H        7.57536704       8.59774447       4.81770625       0.09041491       0.14893018      -0.07858630      -0.00782420       0.01965724      -0.05282389       0.04397659
C        8.75445852       7.49479802       7.79850688      -1.35624467       0.10060374      -0.65233990       0.01468900      -0.05396711       0.02678810      -0.03431880
C       10.06148416       7.26754485       8.46643478       0.48315039       0.78554222      -0.75160969       0.05414860       0.01194242      -0.00242218       0.58056909
O        9.96341995       6.70400038       9.67598039      -0.12762261      -0.39936866       0.72304156      -0.01518866       0.02966463      -0.00223666      -0.50671864
O       11.12206857       7.56173790       7.97779248       0.28560255      -1.42584611       0.97574221       0.05238322      -0.00975658       0.00270696      -0.53303444
C        6.34627743       7.49451762       7.77763404      -0.05919167      -0.02463264       0.58263829      -0.00710590      -0.05357911      -0.01063456      -0.03416931
C        5.08273457       7.23304917       8.51598300       1.32329508      -0.10424398       0.65291857      -0.00366702       0.03228445       0.03206941       0.58059226
O        3.99249790       7.70417513       7.89823037      -0.11118567      -0.19521255       0.51462458       0.00585504      -0.01582553      -0.02440063      -0.50933713
O        5.02976915       6.66944783       9.57801979      -0.25665232       0.86647707      -1.13184229      -0.02903719      -0.00017717       0.01485712      -0.52964914
H        9.71613965       8.20010048       6.01975289       0.13169305      -0.08484840      -0.27917148      -0.03112198      -0.02214800      -0.02146241       0.06072366
H        7.52644059       6.84640460       9.44770613      -0.05303480       0.02457684       0.06000132      -0.00179485      -0.00901834       0.00430506       0.07223716
C        8.76239699       7.99212955       6.49345914      -0.44596818       0.81769887      -0.04345273      -0.00707714       0.01080619       0.03813362       0.00320720
C        7.54686117       7.23251711       8.43497090      -0.12920979      -0.16785661      -0.10020256      -0.01279446       0.03350403       0.01702309       0.00764560
C        7.56698512       8.21992729       5.83202523      -0.05574658      -0.25164779      -0.08171981       0.00770209       0.03516520      -0.00964777      -0.02461547
C        6.35837763       7.98132705       6.47051754      -0.00336723       0.53368329      -0.32308504       0.00623603       0.03212027       0.00251968       0.00101197
H       10.85580500       6.60571018      10.04782115       0.29362626      -0.12667985       0.19144312      -0.02872049      -0.01210786      -0.01590367       0.38298955
H        3.21399818       7.51407343       8.44771838      -0.05158214      -0.33871261      -0.17308160       0.01460918      -0.01397580      -0.01655743       0.38399274
18
Lattice="15.108652899924854 0.0 0.0 0.0 15.108652899924854 0.0 0.0 0.0 15.108652899924854" Properties=species:S:1:pos:R:3:momenta:R:3:forces:R:3:charge:R:1 energy=-1060.2657233984094 free_energy=-1060.2657233984094 dipole="-0.40283067412248125 0.12101956176890086 -0.24677569524341844" stress="0.0 0.0 0.0 0.0 0.0 0.0 0.0 0.0 0.0" pbc="T T T"
H        5.42068392       8.18609721       5.96305048       0.04202344      -0.15846301      -0.08531824      -0.00043601       0.01490847       0.00933850       0.05501449
H        7.57550375       8.62995033       4.81913161       0.09041491       0.14893018      -0.07858630      -0.01473272      -0.02461134       0.03225152       0.04413473
C        8.75875149       7.48086611       7.78870331      -1.35624467       0.10060374      -0.65233990       0.01281480       0.05452966      -0.01197021      -0.03456341
C       10.06540067       7.25359753       8.46119000       0.48315039       0.78554222      -0.75160969      -0.01600854      -0.00343551      -0.00623605       0.58083291
O        9.94626662       6.72265573       9.68346902      -0.12762261      -0.39936866       0.72304156       0.00001013       0.00446989       0.00254274      -0.50696377
O       11.13379833       7.52005548       7.97427203       0.28560255      -1.42584611       0.97574221      -0.00360179      -0.01150087      -0.01082502      -0.53202173
C        6.34908247       7.49647124       7.77577041      -0.05919167      -0.02463264       0.58263829       0.00742849       0.02456769       0.01846508      -0.03464305
C        5.08950088       7.24625884       8.52550315       1.32329508      -0.10424398       0.65291857      -0.02003120      -0.04610249      -0.00901048       0.58029902
O        3.99149390       7.66564984       7.88511884      -0.11118567      -0.19521255       0.51462458       0.00168516      -0.00979480      -0.02451348      -0.50926630
O        5.04113403       6.72136679       9.60795177      -0.25665232       0.86647707      -1.13184229       0.00716826       0.02765008      -0.01324276      -0.53000892
H        9.71131803       8.19627607       6.00870638       0.13169305      -0.08484840      -0.27917148       0.00674998      -0.02096890      -0.01640468       0.05995530
H        7.53312220       6.84928748       9.44350975      -0.05303480       0.02457684       0.06000132      -0.02015624      -0.01400448       0.01788383       0.07256993
C        8.76074571       7.99009523       6.48812981      -0.44596818       0.81769887      -0.04345273       0.00426138       0.01881431      -0.01662894       0.00303926
C        7.55038801       7.23390825       8.43058947      -0.12920979      -0.16785661      -0.10020256       0.02572077      -0.01291049       0.00576497       0.00795423
C        7.56558320       8.23577012       5.82987578      -0.05574658      -0.25164779      -0.08171981      -0.00203262       0.01131505       0.02623681      -0.02457413
C        6.35835989       7.99363147       6.47118479      -0.00336723       0.53368329      -0.32308504       0.00042509      -0.01636048       0.00491708       0.00122842
H       10.83164239       6.61009040      10.06511555       0.29362626      -0.12667985       0.19144312       0.01555839      -0.00593402       0.00338723       0.38295047
H        3.21683770       7.46446757       8.43579307      -0.05158214      -0.33871261      -0.17308160      -0.00482332       0.00936827      -0.01195616       0.38406254
18
Lattice="15.108652899924854 0.0 0.0 0.0 15.108652899924854 0.0 0.0 0.0 15.108652899924854" Properties=species:S:1:pos:R:3:momenta:R:3:forces:R:3:charge:R:1 energy=-1060.2674006146135 free_energy=-1060.2674006146135 dipole="-0.4103021042490649 0.1127269313853637 -0.2483129330233136" stress="0.0 0.0 0.0 0.0 0.0 0.0 0.0 0.0 0.0" pbc="T T T"
H        5.41979043       8.19773228       5.97066948       0.04202344      -0.15846301      -0.08531824       0.00852213       0.00670680       0.00608226       0.05515855
H        7.57044650       8.64126500       4.82552158       0.09041491       0.14893018      -0.07858630      -0.00725980      -0.00183750      -0.01201768       0.04401095
C        8.76266317       7.48616708       7.78574554      -1.35624467       0.10060374      -0.65233990      -0.02506543      -0.00874000       0.02052119      -0.03440756
C       10.06642444       7.24556428       8.45780989       0.48315039       0.78554222      -0.75160969       0.00422151       0.01388887       0.00247938       0.58081475
O        9.93784081       6.73440015       9.68808255      -0.12762261      -0.39936866       0.72304156       0.02432589       0.00235265      -0.00079542      -0.50726203
O       11.13862880       7.48780395       7.96656012       0.28560255      -1.42584611       0.97574221      -0.01008791      -0.01738826      -0.00145882      -0.53188719
C        6.35202156       7.50108854       7.77865156      -0.05919167      -0.02463264       0.58263829       0.00212428      -0.01653404      -0.01203471      -0.03499745
C        5.09146952       7.24759498       8.52607096       1.32329508      -0.10424398       0.65291857       0.03662207       0.04246320      -0.02370797       0.58039029
O        3.99016489       7.63149574       7.86915319      -0.11118567      -0.19521255       0.51462458       0.00426867      -0.03216498      -0.00733734      -0.50927784
O        5.04892214       6.75977657       9.62512471      -0.25665232       0.86647707      -1.13184229      -0.02949560      -0.02869948       0.03601694      -0.52979662
H        9.71111688       8.18838612       5.99583627       0.13169305      -0.08484840      -0.27917148       0.00507107       0.00324504       0.00648693       0.05991273