18
Lattice="15.108652899924854 0.0 0.0 0.0 15.108652899924854 0.0 0.0 0.0 15.108652899924854" Properties=species:S:1:pos:R:3:momenta:R:3:forces:R:3:charge:R:1 energy=-1060.2369888185094 free_energy=-1060.2369888185094 dipole="-0.397227032050108 0.17886803310498844 -0.22488438817670978" stress="0.0 0.0 0.0 0.0 0.0 0.0 0.0 0.0 0.0" pbc="T T T"
H        5.40217873       8.14175620       5.98585433      -0.02133905      -0.04885323       0.08646532      -0.00367190       0.06668584      -0.02915240       0.05558391
H        7.54294937       8.68391502       4.85515157       0.06719959      -0.04698188      -0.15165614       0.01540239      -0.05449957       0.07384009       0.04369250
C        8.76431567       7.45487956       7.77918778      -0.31497260       0.28826854      -0.31186417      -0.03842098      -0.00949018       0.06294408      -0.03477199
C       10.09247708       7.27642757       8.43142479      -0.75399427      -0.62779621       1.02010352      -0.10708978       0.07675274      -0.02465615       0.58024978
O       10.03636016       6.70785277       9.64067294      -0.26942535       0.46406937       0.29018796      -0.02417432       0.16999396       0.01828819      -0.50612217
O       11.13105053       7.64535249       7.94442939       0.98251906      -0.20985511      -0.89660978      -0.04311441      -0.03044631       0.00656891      -0.53241798
C        6.35051314       7.43431034       7.77291783       0.53655621      -0.34181945      -0.08791104      -0.06829676       0.06892088       0.05322993      -0.03362526
C        5.07757570       7.15807430       8.49298011      -0.39797351       0.64853863      -1.17963554       0.06655785      -0.02849025       0.15358590       0.58020117
O        3.99265998       7.64986627       7.88005337       0.73621647      -0.53750662      -0.04964933       0.07358232      -0.06160028      -0.05547258      -0.50946127
O        5.01361954       6.56658837       9.53979908      -0.44303611      -0.48499470       0.96044018      -0.02825986       0.00900942      -0.02827329      -0.52950048
H        9.70062296       8.18039444       6.00765586       0.05969484      -0.12832565       0.21362187       0.00799338       0.07431336      -0.07430969       0.06085025
H        7.55495848       6.82183481       9.44176147      -0.00659178      -0.02709750      -0.12038405      -0.04070392      -0.09119528       0.04755046       0.07054502
C        8.75060937       7.98521131       6.48981373      -0.63240804       0.65432350      -0.62713135      -0.08604637       0.04457723      -0.09677630       0.00269737
C        7.55784785       7.19154078       8.42437515      -0.23473597       0.15524579       0.10605928       0.12324207      -0.01819908       0.05763855       0.00818015
C        7.54725603       8.25494604       5.85359223      -0.16987561       0.09781587       0.27914766       0.06387004      -0.05077537      -0.14053314      -0.02422171
C        6.34661338       7.96664981       6.48537063       0.81708258       0.34265275       0.22884280       0.07746970       0.00922724      -0.06844384       0.00035304
H       10.91952925       6.78206755      10.03839802       0.02659041      -0.06671943       0.07114326       0.00879025      -0.18146438       0.02251983       0.38351972
H        3.20656806       7.42080037       8.40197560       0.01849313      -0.13096469       0.16882955       0.00287028       0.00668004       0.02145145       0.38424795
18
Lattice="15.108652899924854 0.0 0.0 0.0 15.108652899924854 0.0 0.0 0.0 15.108652899924854" Properties=species:S:1:pos:R:3:momenta:R:3:forces:R:3:charge:R:1 energy=-1060.254579953814 free_energy=-1060.254579953814 dipole="-0.3938212623046942 0.16253739715265625 -0.22581992330402206" stress="0.0 0.0 0.0 0.0 0.0 0.0 0.0 0.0 0.0" pbc="T T T"
H        5.41124938       8.15725407       5.98334587      -0.02133905      -0.04885323       0.08646532      -0.01603159       0.01495106       0.02409824       0.05529203
H        7.54704290       8.67486713       4.84972277       0.06719959      -0.04698188      -0.15165614      -0.02375939      -0.04648032      -0.08302257       0.04445210
C        8.75853466       7.46265201       7.77712037      -0.31497260       0.28826854      -0.31186417       0.05485974       0.04136576       0.06838420      -0.03441055
C       10.08126789       7.29441328       8.43422483      -0.75399427      -0.62779621       1.02010352       0.11824024       0.02000949       0.02718409       0.58048214
O       10.02350942       6.74859346       9.65366311      -0.26942535       0.46406937       0.29018796      -0.07043004       0.02216237       0.06577400      -0.50670383
O       11.12387772       7.64002143       7.93872374       0.98251906      -0.20985511      -0.89660978      -0.00457746      -0.01941471      -0.03004624      -0.53358147
C        6.35406899       7.44689102       7.78172545       0.53655621      -0.34181945      -0.08791104      -0.01353208      -0.03056044      -0.00683820      -0.03442375
C        5.08607708       7.15979288       8.50592818      -0.39797351       0.64853863      -1.17963554      -0.02337673      -0.03855404      -0.06273098       0.58066981
O        4.00399903       7.63270251       7.87486164       0.73621647      -0.53750662      -0.04964933      -0.02634753       0.03249853      -0.02098330      -0.50995399
O        5.01229369       6.56394105       9.54832451      -0.44303611      -0.48499470       0.96044018       0.06472042       0.03374032       0.03749874      -0.52876420
H        9.69458152       8.19809235       5.99514714       0.05969484      -0.12832565       0.21362187       0.01214293       0.01567760       0.00621072       0.06094046
H        7.54786560       6.80092070       9.44535676      -0.00659178      -0.02709750      -0.12038405       0.02949539       0.01118368      -0.07284144       0.07135847
C        8.74890282       7.98733241       6.48159159      -0.63240804       0.65432350      -0.62713135       0.01628342      -0.02814950       0.06665752       0.00323763
C        7.56046184       7.19185489       8.43202998      -0.23473597       0.15524579       0.10605928       0.00452297      -0.00109678      -0.02994850       0.00789691
C        7.54905488       8.23838116       5.83988707      -0.16987561       0.09781587       0.27914766      -0.01367036       0.02810687       0.05252676      -0.02441078
C        6.35233484       7.96600167       6.48520848       0.81708258       0.34265275       0.22884280      -0.04957094       0.01148343       0.02422086       0.00113817
H       10.91724482       6.73533617      10.03725596       0.02659041      -0.06671943       0.07114326      -0.05613007      -0.04277702      -0.06889144       0.38295858
H        3.21533821       7.42341982       8.40129644       0.01849313      -0.13096469       0.16882955      -0.00283891      -0.02414629       0.00274754       0.38382227
18
Lattice="15.108652899924854 0.0 0.0 0.0 15.108652899924854 0.0 0.0 0.0 15.108652899924854" Properties=species:S:1:pos:R:3:momenta:R:3:forces:R:3:charge:R:1 energy=-1060.2614893999796 free_energy=-1060.2614893999796 dipole="-0.3926732130556678 0.12755734042285324 -0.23643900113516628" stress="0.0 0.0 0.0 0.0 0.0 0.0 0.0 0.0 0.0" pbc="T T T"
H        5.40795195       8.16977139       5.98923864      -0.02133905      -0.04885323       0.08646532      -0.00235534      -0.00012027       0.00936531       0.05543128
H        7.54298945       8.64900331       4.83899181       0.06719959      -0.04698188      -0.15165614       0.00710412      -0.01658488      -0.00910887       0.04404641
C        8.76368275       7.48120619       7.78542574      -0.31497260       0.28826854      -0.31186417      -0.04210579       0.02636876      -0.03868883      -0.03451049
C       10.08434431       7.30899600       8.44205051      -0.75399427      -0.62779621       1.02010352      -0.02448947      -0.00125661      -0.00962879       0.58084304
O       10.00734896       6.77959084       9.66756168      -0.26942535       0.46406937       0.29018796       0.02050579      -0.01798634      -0.01880736      -0.50658544
O       11.13025630       7.62606538       7.93606878       0.98251906      -0.20985511      -0.89660978       0.02691764      -0.05349624       0.04241596      -0.53275538
C        6.35509365       7.44350558       7.77841547       0.53655621      -0.34181945      -0.08791104       0.00092361      -0.00580855      -0.00556532      -0.03452252
C        5.08856039       7.15454646       8.50270278      -0.39797351       0.64853863      -1.17963554       0.01830672       0.04407551       0.01413104       0.58047886
O        4.00420499       7.62554425       7.87198441       0.73621647      -0.53750662      -0.04964933       0.00454715      -0.04477376       0.02080652      -0.51003179
O        5.02471296       6.57503916       9.55531920      -0.44303611      -0.48499470       0.96044018      -0.01159667       0.01236968      -0.01730959      -0.52875703
H        9.69164758       8.20911400       5.99481276       0.05969484      -0.12832565       0.21362187       0.02285557      -0.00438290       0.01432146       0.06043219
H        7.55256923       6.79057445       9.43359401      -0.00659178      -0.02709750      -0.12038405       0.00810169      -0.00548140       0.01873454       0.07152204
C        8.74960093       7.99179454       6.48570885      -0.63240804       0.65432350      -0.62713135       0.00552671       0.08118793      -0.03066139       0.00318292
C        7.56335384       7.19299386       8.42741362      -0.23473597       0.15524579       0.10605928      -0.01817250       0.01221748      -0.00882038       0.00810085
C        7.54869930       8.23813714       5.84188847      -0.16987561       0.09781587       0.27914766      -0.03384743      -0.00940027      -0.01816001      -0.02469260
C        6.35001278       7.97169163       6.48668316       0.81708258       0.34265275       0.22884280       0.00414003      -0.00227514      -0.00442929       0.00100005
H       10.90545281       6.69717066      10.02608618       0.02659041      -0.06671943       0.07114326       0.01830084       0.00104388       0.03739404       0.38304609
H        3.21722309       7.41772316       8.40146778       0.01849313      -0.13096469       0.16882955      -0.00466267      -0.01569686       0.00401094       0.38377150
18
Lattice="15.108652899924854 0.0 0.0 0.0 15.108652899924854 0.0 0.0 0.0 15.108652899924854" Properties=species:S:1:pos:R:3:momenta:R:3:forces:R:3:charge:R:1 energy=-1060.2635005539228 free_energy=-1060.2635005539228 dipole="-0.3973414234353923 0.1331988721048886 -0.23933112176484525" stress="0.0 0.0 0.0 0.0 0.0 0.0 0.0 0.0 0.0" pbc="T T T"
H        5.40470200       8.17218730       5.99247107      -0.02133905      -0.04885323       0.08646532      -0.00162304      -0.01345701      -0.01095688       0.05549895
H        7.54133417       8.63861770       4.82956286       0.06719959      -0.04698188      -0.15165614      -0.01250425      -0.00467133       0.01002253       0.04408750
C        8.76277659       7.49358245       7.78394640      -0.31497260       0.28826854      -0.31186417       0.02285541       0.00077214       0.01754247      -0.03466552
C       10.08390304       7.30922339       8.44355239      -0.75399427      -0.62779621       1.02010352      -0.00765348      -0.02063822      -0.00074356       0.58055435
O       10.00411104       6.78006661       9.66975003      -0.26942535       0.46406937       0.29018796      -0.01247563      -0.01248198      -0.00514799      -0.50679537
O       11.13646020       7.60947965       7.94111499       0.98251906      -0.20985511      -0.89660978      -0.01171354      -0.01373428      -0.01921911      -0.53252458
C        6.35464097       7.44473425       7.77735522       0.53655621      -0.34181945      -0.08791104       0.01454560       0.03532511       0.00145446      -0.03438053
C        5.08980311       7.15816805       8.50423156      -0.39797351       0.64853863      -1.17963554       0.00182634      -0.02162394       0.00144166       0.58061118
O        4.00216467       7.61704851       7.87152234       0.73621647      -0.53750662      -0.04964933      -0.00299675      -0.00721731      -0.00103365      -0.50992095
O        5.02844242       6.58165543       9.55851928      -0.44303611      -0.48499470       0.96044018      -0.00054130       0.01611807       0.01783685      -0.52903686
H        9.69644369       8.21382019       5.99747663       0.05969484      -0.12832565       0.21362187      -0.02511330       0.03349147      -0.00239319       0.06048743
H        7.55656640       6.78892517       9.43019557      -0.00659178      -0.02709750      -0.12038405       0.00071817       0.00743860      -0.00792961       0.07168646
C        8.74923452       8.00746534       6.48468067      -0.63240804       0.65432350      -0.62713135      -0.00377458      -0.03466997       0.00699831       0.00299268
C        7.56362682       7.19648252       8.42516259      -0.23473597       0.15524579       0.10605928       0.01428929       0.02087578       0.00490054       0.00809666
C        7.54571599       8.23889207       5.83735470      -0.16987561       0.09781587       0.27914766       0.03960669       0.01136113       0.00314737      -0.02445710
C        6.34853887       7.97247418       6.48559822       0.81708258       0.34265275       0.22884280       0.01301451       0.01440697      -0.02110954       0.00090962
H       10.90235100       6.68979611      10.02913089       0.02659041      -0.06671943       0.07114326      -0.02704485       0.00838911       0.00018839       0.38296372
H        3.21688978       7.40984908       8.40378847       0.01849313      -0.13096469       0.16882955      -0.00141530      -0.01968434       0.00500095       0.38389235
18
Lattice="15.108652899924854 0.0 0.0 0.0 15.108652899924854 0.0 0.0 0.0 15.108652899924854" Properties=species:S:1:pos:R:3:momenta:R:3:forces:R:3:charge:R:1 energy=-1060.2652205036554 free_energy=-1060.2652205036554 dipole="-0.39932161780071723 0.13675406720985886 -0.237923929627775" stress="0.0 0.0 0.0 0.0 0.0 0.0 0.0 0.0 0.0" pbc="T T T"
H        5.40540956       8.16863514       5.98986846      -0.02133905      -0.04885323       0.08646532       0.00672423      -0.00403918      -0.02413855       0.05542709
H        7.53838755       8.62837455       4.82157031       0.06719959      -0.04698188      -0.15165614       0.02138801       0.01353883       0.01110330       0.04421451
C        8.76515399       7.50485953       7.78510877      -0.31497260       0.28826854      -0.31186417      -0.00887941      -0.02322181      -0.01722611      -0.03447572
C       10.08243460       7.30157679       8.44346624      -0.75399427      -0.62779621       1.02010352       0.01374940      -0.00013008      -0.01154799       0.58063595
O        9.99423951       6.77495207       9.67014130      -0.26942535       0.46406937       0.29018796      -0.01106200       0.01090626      -0.00036404      -0.50684880
O       11.13883593       7.58427098       7.93909986       0.98251906      -0.20985511      -0.89660978       0.00468727      -0.00710297      -0.00761799      -0.53258811
C        6.35677242       7.45829054       7.77862157       0.53655621      -0.34181945      -0.08791104      -0.01842696      -0.01928481       0.01131810      -0.03458363
C        5.09313684       7.16061592       8.50686511      -0.39797351       0.64853863      -1.17963554      -0.00542471       0.03035510       0.00179511       0.58047514
O        4.00007494       7.60131313       7.87052719       0.73621647      -0.53750662      -0.04964933      -0.00473947      -0.00202961      -0.01700507      -0.50986757
O        5.03470827       6.59486448       9.56726630      -0.44303611      -0.48499470       0.96044018       0.04157670       0.00784328      -0.00150851      -0.52896105
H        9.69441733       8.23328026       5.99804742       0.05969484      -0.12832565       0.21362187       0.02398241      -0.00077126      -0.01271801       0.06028170
H        7.56000612       6.79107268       9.42516021      -0.00659178      -0.02709750      -0.12038405      -0.00788770       0.02525705       0.02282129       0.07183790
C        8.75080148       8.01491498       6.48458163      -0.63240804       0.65432350      -0.62713135       0.00413039       0.02426827      -0.00111899       0.00323491
C        7.56589641       7.20996468       8.42541814      -0.23473597       0.15524579       0.10605928      -0.01025610      -0.01737220       0.00439422       0.00787907
C        7.54854360       8.24134115       5.83401919      -0.16987561       0.09781587       0.27914766      -0.02897573      -0.00285850       0.02001837      -0.02448364
C        6.35109024       7.97738415       6.48290354       0.81708258       0.34265275       0.22884280      -0.02230540      -0.00567665       0.02911391       0.00091915
H       10.88975215       6.68442779      10.03514285       0.02659041      -0.06671943       0.07114326      -0.00977812      -0.01078530       0.00087144       0.38302436
H        3.21804434       7.39232918       8.40760580       0.01849313      -0.13096469       0.16882955       0.01149720      -0.01889640      -0.00819048       0.38387873
18
Lattice="15.108652899924854 0.0 0.0 0.0 15.108652899924854 0.0 0.0 0.0 15.108652899924854" Properties=species:S:1:pos:R:3:momenta:R:3:forces:R:3:charge:R:1 energy=-1060.2665212030486 free_energy=-1060.2665212030486 dipole="-0.404611695586871 0.13525396376399249 -0.23592075305726457" stress="0.0 0.0 0.0 0.0 0.0 0.0 0.0 0.0 0.0" pbc="T T T"
H        5.40712915       8.16393638       5.98126994      -0.02133905      -0.04885323       0.08646532      -0.00246480      -0.00356969       0.01314581       0.05535984
H        7.54094394       8.62627612       4.82173648       0.06719959      -0.04698188      -0.15165614      -0.00482479       0.02843292       0.00636947       0.04397791
C        8.76587564       7.50654365       7.78244073      -0.31497260       0.28826854      -0.31186417      -0.00842562       0.00424937       0.00224950      -0.03458205
C       10.08211956       7.29423718       8.43987527      -0.75399427      -0.62779621       1.02010352      -0.01048965       0.00315909      -0.00002719       0.58071865
O        9.98436979       6.77536361       9.66930126      -0.26942535       0.46406937       0.29018796       0.00981331       0.01049123       0.00109850      -0.50704679
O       11.14148431       7.56295212       7.93449697       0.98251906      -0.20985511      -0.89660978       0.00107761      -0.01054330       0.00341261      -0.53225031
C        6.35630862       7.46591764       7.78107828       0.53655621      -0.34181945      -0.08791104       0.01549704      -0.00514117      -0.02482036      -0.03448536
C        5.09578371       7.16749504       8.50995928      -0.39797351       0.64853863      -1.17963554       0.02099702      -0.00844270       0.00362116       0.58042233
O        3.99828348       7.58796727       7.86762918       0.73621647      -0.53750662      -0.04964933       0.01416514      -0.01601089       0.02676525      -0.50968191
O        5.04802100       6.60962694       9.57519866      -0.44303611      -0.48499470       0.96044018      -0.02980758       0.02002404       0.00960062      -0.52934158
H        9.69512654       8.24708409       5.99640952       0.05969484      -0.12832565       0.21362187      -0.01731805      -0.01971473       0.01522186       0.06020655
H        7.55997828       6.80205501       9.42811527      -0.00659178      -0.02709750      -0.12038405      -0.00068377       0.01669443      -0.00021455       0.07221525
C        8.75197516       8.02423383       6.48485491      -0.63240804       0.65432350      -0.62713135      -0.00245311      -0.01398962      -0.00177595       0.00324890
C        7.56655240       7.21558104       8.42568882      -0.23473597       0.15524579       0.10605928      -0.00377525       0.00992902      -0.00778792       0.00808778
C        7.54743797       8.24464276       5.83613714      -0.16987561       0.09781587       0.27914766       0.01006232       0.01263134      -0.00963331      -0.02471910
C        6.34942803       7.97971570       6.48382358       0.81708258       0.34265275       0.22884280       0.01737524      -0.00308024      -0.02902700       0.00099833
H       10.87636438       6.67680806      10.03985337       0.02659041      -0.06671943       0.07114326       0.00570251      -0.01193235       0.00030892       0.38290572
H        3.22052333       7.37203156       8.40754520       0.01849313      -0.13096469       0.16882955      -0.01444758      -0.01318675      -0.00850744       0.38396582
18
Lattice="15.108652899924854 0.0 0.0 0.0 15.108652899924854 0.0 0.0 0.0 15.108652899924854" Properties=species:S:1:pos:R:3:momenta:R:3:forces:R:3:charge:R:1 energy=-1060.267825428877 free_energy=-1060.267825428877 dipole="-0.40784200097071616 0.1250547232357166 -0.24193592298367217" stress="0.0 0.0 0.0 0.0 0.0 0.0 0.0 0.0 0.0" pbc="T T T"
H        5.40743625       8.15743117       5.97557995      -0.02133905      -0.04885323       0.08646532      -0.00841820       0.00354041      -0.00073213       0.05523209
H        7.54349715       8.64136583       4.82207634       0.06719959      -0.04698188      -0.15165614      -0.00396852       0.01969015       0.00585884       0.04413290
C        8.76589202       7.50946184       7.78043594      -0.31497260       0.28826854      -0.31186417       0.01031562       0.01459891       0.00647093      -0.03450406
C       10.08089011       7.28694995       8.43720058      -0.75399427      -0.62779621       1.02010352       0.00338779       0.00169697       0.01279494       0.58087102
O        9.97593368       6.77999236       9.67106083      -0.26942535       0.46406937       0.29018796      -0.00792170      -0.00343216       0.00920563      -0.50722147
O       11.14381498       7.53494710       7.92894301       0.98251906      -0.20985511      -0.89660978      -0.00788966      -0.00493518      -0.00562788      -0.53198794
C        6.35777189       7.46902510       7.77679626       0.53655621      -0.34181945      -0.08791104      -0.01494121      -0.00620037       0.01837652      -0.03470986
C        5.10148070       7.17216945       8.51537863      -0.39797351       0.64853863      -1.17963554      -0.02946671      -0.00869727      -0.00851221       0.58053897
O        3.99882866       7.56904886       7.86842991       0.73621647      -0.53750662      -0.04964933      -0.02180703      -0.00258392      -0.04370822      -0.50965657
O        5.05714340       6.63424649       9.59102157      -0.44303611      -0.48499470       0.96044018       0.02546252       0.00896420       0.00571669      -0.52951045
H        9.69429092       8.25233599       5.99902545       0.05969484      -0.12832565       0.21362187       0.02834129      -0.00624364      -0.01579013       0.06005560
H        7.55852002       6.82390218       9.43179768      -0.00659178      -0.02709750      -0.12038405      -0.00144820      -0.00687950       0.00198712       0.07240111
C        8.75133736       8.02941817       6.48449884      -0.63240804       0.65432350      -0.62713135       0.00731763      -0.01319156      -0.01035630       0.00309316
C        7.56653047       7.22470798       8.42456063      -0.23473597       0.15524579       0.10605928       0.00599118       0.01177908       0.01171211       0.00795728
C        7.54857009       8.25311556       5.83394596      -0.16987561       0.09781587       0.27914766       0.00085560      -0.01015281      -0.00198665      -0.02459083
C        6.35082009       7.97879902       6.47745015       0.81708258       0.34265275       0.22884280      -0.01766091       0.00014273       0.02002779       0.00115013
H       10.86455702       6.66323267      10.04375304       0.02659041      -0.06671943       0.07114326       0.01807353       0.00130493      -0.01061098       0.38285693
H        3.22039046       7.34231829       8.40345912       0.01849313      -0.13096469       0.16882955       0.01377698       0.00059900       0.00517392       0.38389199
18
Lattice="15.108652899924854 0.0 0.0 0.0 15.108652899924854 0.0 0.0 0.0 15.108652899924854" Properties=species:S:1:pos:R:3:momenta:R:3:forces:R:3:charge:R:1 energy=-1060.268566624458 free_energy=-1060.268566624458 dipole="-0.41008441336477575 0.12090134203262656 -0.24300063984217588" stress="0.0 0.0 0.0 0.0 0.0 0.0 0.0 0.0 0.0" pbc="T T T"
H        5.40629525       8.15575866       5.97442728      -0.02133905      -0.04885323       0.08646532       0.01182571       0.00486442       0.00529263       0.05526423
H        7.54277829       8.65460167       4.82637272       0.06719959      -0.04698188      -0.15165614      -0.00290280      -0.01097031       0.00214582       0.04404759
C        8.76636553       7.51445103       7.78121141      -0.31497260       0.28826854      -0.31186417      -0.01165583      -0.01294283       0.00162943      -0.03453912
C       10.07957303       7.28454387       8.43852090      -0.75399427      -0.62779621       1.02010352       0.00385586       0.00233533      -0.00553477       0.58075564
O        9.97344511       6.78290667       9.67464936      -0.26942535       0.46406937       0.29018796       0.00707298       0.00198141      -0.00668730      -0.50713751
O       11.14330025       7.51999045       7.92593279       0.98251906      -0.20985511      -0.89660978       0.00448370      -0.00313140       0.00335262      -0.53214050
C        6.35691800       7.47007848       7.77666653       0.53655621      -0.34181945      -0.08791104       0.00694571       0.00275303      -0.01028794      -0.03474416
C        5.10067291       7.17277895       8.51444917      -0.39797351       0.64853863      -1.17963554       0.01675232       0.01985990       0.00082039       0.58036741
O        3.99579055       7.55432334       7.86102254       0.73621647      -0.53750662      -0.04964933       0.01066458      -0.03762072       0.00661367      -0.50953252
O        5.06272775       6.65067765       9.59825066      -0.44303611      -0.48499470       0.96044018      -0.02794417       0.00489691      -0.01088939      -0.52948821
H        9.69806308       8.24965867       5.99686802       0.05969484      -0.12832565       0.21362187      -0.01621331      -0.01271956      -0.00261563       0.06012152
H        7.55780931       6.83337268       9.43416253      -0.00659178      -0.02709750      -0.12038405       0.00476415      -0.00150793       0.00220000       0.07253363
C        8.75318368       8.02877678       6.48230234      -0.63240804       0.65432350      -0.62713135      -0.00084523       0.00859979       0.01148444       0.00324399
C        7.56667406       7.23194720       8.42597871      -0.23473597       0.15524579       0.10605928      -0.01399264       0.00318207       0.00038699       0.00796884
C        7.54896405       8.25484812       5.83402693      -0.16987561       0.09781587       0.27914766      -0.00140449       0.00938335       0.01294084      -0.02465600
C        6.35021437       7.97862628       6.47702624       0.81708258       0.34265275       0.22884280       0.01065597       0.01241043      -0.00404654       0.00108198
H       10.86346170       6.65635312      10.04135861       0.02659041      -0.06671943       0.07114326       0.00698249       0.00346510      -0.00346282       0.38287548
H        3.22146836       7.32877440       8.40218715       0.01849313      -0.13096469       0.16882955      -0.00904500       0.00516101      -0.00334246       0.38397771
18
Lattice="15.108652899924854 0.0 0.0 0.0 15.108652899924854 0.0 0.0 0.0 15.108652899924854" Properties=species:S:1:pos:R:3:momenta:R:3:forces:R:3:charge:R:1 energy=-1060.2691287590974 free_energy=-1060.2691287590974 dipole="-0.4078696306004733 0.125106684819335 -0.24410612358445935" stress="0.0 0.0 0.0 0.0 0.0 0.0 0.0 0.0 0.0" pbc="T T T"
H        5.40842756       8.15666021       5.97317912      -0.02133905      -0.04885323       0.08646532      -0.00697178       0.01369751      -0.00180668       0.05532506
H        7.54192454       8.66181644       4.82947378       0.06719959      -0.04698188      -0.15165614       0.01118032      -0.00900040      -0.00424448       0.04407998
C        8.76611588       7.51665888       7.78262484      -0.31497260       0.28826854      -0.31186417       0.00591032       0.00779585      -0.00196151      -0.03454107
C       10.07939597       7.28007383       8.43786573      -0.75399427      -0.62779621       1.02010352      -0.00452576      -0.00849510      -0.00326092       0.58071625
O        9.97229987       6.78531017       9.67651683      -0.26942535       0.46406937       0.29018796       0.00695466      -0.00152771      -0.00032644      -0.50708958
O       11.14442007       7.50219387       7.92219848       0.98251906      -0.20985511      -0.89660978       0.00103994       0.00741608      -0.01157072      -0.53215545
C        6.35693611       7.47523898       7.77704702       0.53655621      -0.34181945      -0.08791104      -0.00210768       0.00661979       0.01511792      -0.03471110
C        5.10122969       7.17649283       8.51445566      -0.39797351       0.64853863      -1.17963554      -0.01207130      -0.02915656      -0.00040338       0.58035893
O        3.99343418       7.52801729       7.85029595       0.73621647      -0.53750662      -0.04964933      -0.00486651       0.01529271      -0.01253545      -0.50947597
O        5.06294234       6.67060173       9.60590203      -0.44303611      -0.48499470       0.96044018       0.00388193       0.01292766       0.01752182      -0.52987665
H        9.69713796       8.24499172       5.99373035       0.05969484      -0.12832565       0.21362187       0.00603527       0.00100600       0.00799735       0.06006399