18
Lattice="15.108652899924854 0.0 0.0 0.0 15.108652899924854 0.0 0.0 0.0 15.108652899924854" Properties=species:S:1:pos:R:3:momenta:R:3:forces:R:3:charge:R:1 energy=-1060.0368410215226 free_energy=-1060.0368410215226 dipole="-0.3546574851997171 0.07318541098825303 -0.34387670791949587" stress="0.0 0.0 0.0 0.0 0.0 0.0 0.0 0.0 0.0" pbc="T T T"
H        5.43638813       8.30533280       5.83318380      -0.05932221       0.03082038      -0.08050891       0.07943240      -0.11951946       0.49897507       0.05476675
H        7.62068401       8.57378426       4.76986086       0.16550007      -0.26744353       0.09241270      -0.19697032       0.09614309      -0.10886943       0.04261339
C        8.78007710       7.41156942       7.71141020       0.96777279      -0.74645419      -0.39070640      -0.24973756       0.04165149       0.28811126      -0.03157541
C       10.07328618       7.25395427       8.46148932      -1.28408565       0.01558511      -0.29093528      -0.74632478      -0.18099737      -0.01866279       0.58048433
O       10.04347492       6.54212334       9.60005329      -0.12398358       1.04219653       0.35769660      -0.00655417       0.07682145      -0.33674694      -0.50658986
O       11.09091289       7.76752644       8.10100809       2.34388155       0.69474062       0.46067291       0.71034690       0.37166124      -0.50571143      -0.53055341
C        6.33225239       7.51455996       7.70949814      -0.52719329      -0.45811817      -0.05892726       0.22090965      -0.33212823      -0.12247678      -0.03525225
C        5.11739130       7.20046227       8.52286415       0.47086866      -0.23000213      -0.85102223       0.00223057       0.40568763      -0.87206732       0.58170708
O        4.03317190       7.76195915       7.99055405      -0.64113914       0.15110844      -0.95661038      -0.46597224      -0.00136942      -0.03626030      -0.50866906
O        5.05326214       6.52384542       9.50933932       0.67198666       0.03475970      -0.36048774       0.38387211      -0.18756818       0.26050111      -0.52692020
H        9.68541365       8.20780240       5.89533290       0.12419650      -0.02537105       0.28169818       0.10401618      -0.09477187       0.17939916       0.05833377
H        7.44153966       6.68621228       9.26576262      -0.31324235       0.13602407      -0.00400881       0.31929002      -0.19699857       0.47638400       0.07140045
C        8.76970687       7.97034545       6.42520761      -0.03220852      -0.39900459       0.41814332      -0.06720574      -0.23536324       0.31168130       0.00426123
C        7.54007023       7.14099755       8.29981269      -0.01009358       0.32148149       0.54206680       0.14150063       0.33497118      -0.18199091       0.00022545
C        7.56056483       8.20612505       5.78568073      -0.76555189       0.00169609      -0.24781999       0.17301749       0.25299729      -0.12611390      -0.02693686
C        6.32983877       8.05220367       6.40913803      -0.51005631      -0.21610617       0.51764588       0.16256165      -0.28935499       0.16837503       0.00531215
H       10.97394491       6.54979101       9.90435569      -0.25050322      -0.31423959       0.15345950      -0.34795883      -0.11085450       0.17702093       0.38396544
H        3.28472397       7.45093695       8.52600290      -0.22682651       0.22832699       0.41723110      -0.21645396       0.16899247      -0.05154806       0.38342699
18
Lattice="15.108652899924854 0.0 0.0 0.0 15.108652899924854 0.0 0.0 0.0 15.108652899924854" Properties=species:S:1:pos:R:3:momenta:R:3:forces:R:3:charge:R:1 energy=-1060.2079492649364 free_energy=-1060.2079492649364 dipole="-0.4089920803160491 0.05743814357078361 -0.26349283416826763" stress="0.0 0.0 0.0 0.0 0.0 0.0 0.0 0.0 0.0" pbc="T T T"
H        5.44001554       8.28161474       5.91877357      -0.05932221       0.03082038      -0.08050891      -0.05677198      -0.06399418       0.03838511       0.05356633
H        7.59338480       8.59833182       4.75634784       0.16550007      -0.26744353       0.09241270       0.02137156       0.05350183       0.07890344       0.04398271
C        8.76564476       7.43487985       7.73251035       0.96777279      -0.74645419      -0.39070640      -0.09614569       0.02357849      -0.04337037      -0.03254858
C       10.07111584       7.27584926       8.42832710      -1.28408565       0.01558511      -0.29093528       0.18927882       0.08099322      -0.11385717       0.58049353
O       10.02341688       6.54857681       9.54820662      -0.12398358       1.04219653       0.35769660      -0.07620946       0.01240839       0.00005028      -0.50477275
O       11.09696240       7.77789207       8.03835747       2.34388155       0.69474062       0.46067291      -0.12500490      -0.09611512      -0.01522983      -0.53430999
C        6.35121161       7.47220074       7.69749470      -0.52719329      -0.45811817      -0.05892726      -0.01134141      -0.02807578       0.05168558      -0.03434753
C        5.10371647       7.19955615       8.46176232       0.47086866      -0.23000213      -0.85102223       0.10554684       0.16610611      -0.02818021       0.58068159
O        3.98914907       7.75677966       7.97081106      -0.64113914       0.15110844      -0.95661038       0.10595349      -0.17096143      -0.09427152      -0.50815061
O        5.10828815       6.55134761       9.47354154       0.67198666       0.03475970      -0.36048774      -0.23650636      -0.19817672       0.24302180      -0.53065487
H        9.70677214       8.18030503       5.94362848       0.12419650      -0.02537105       0.28169818       0.09259675      -0.03993296       0.07626045       0.05903564
H        7.50191085       6.67862856       9.31765918      -0.31324235       0.13602407      -0.00400881       0.07852472       0.07912883       0.06877278       0.07327594
C        8.76703232       7.96261569       6.43759404      -0.03220852      -0.39900459       0.41814332       0.02758504       0.10092251      -0.07707439       0.00296980
C        7.54836660       7.14668498       8.34159788      -0.01009358       0.32148149       0.54206680      -0.01170104       0.01510259      -0.10946471       0.00746822
C        7.57861655       8.22698086       5.77614875      -0.76555189       0.00169609      -0.24781999      -0.01621367      -0.04834517      -0.02583771      -0.02460762
C        6.36551110       8.01735728       6.41610570      -0.51005631      -0.21610617       0.51764588      -0.00965766       0.04742292      -0.01034172       0.00032506
H       10.91588305       6.53101994       9.93440766      -0.25050322      -0.31423959       0.15345950      -0.06391416      -0.02844119       0.00668554       0.38341500
H        3.23970571       7.47891066       8.52728012      -0.22682651       0.22832699       0.41723110       0.08260909       0.09487768      -0.04613735       0.38417814
18
Lattice="15.108652899924854 0.0 0.0 0.0 15.108652899924854 0.0 0.0 0.0 15.108652899924854" Properties=species:S:1:pos:R:3:momenta:R:3:forces:R:3:charge:R:1 energy=-1060.2336969722037 free_energy=-1060.2336969722037 dipole="-0.38010618708406485 0.09994961602385095 -0.23102355094922386" stress="0.0 0.0 0.0 0.0 0.0 0.0 0.0 0.0 0.0" pbc="T T T"
H        5.42767260       8.26067387       5.94370015      -0.05932221       0.03082038      -0.08050891       0.02597580      -0.02498786      -0.02288795       0.05434380
H        7.59038652       8.62047610       4.76396309       0.16550007      -0.26744353       0.09241270      -0.03480871       0.01449047       0.02203396       0.04409850
C        8.76194786       7.44634414       7.72386167       0.96777279      -0.74645419      -0.39070640       0.05505186      -0.01010016      -0.01604171      -0.03396745
C       10.07144723       7.28180414       8.40780191      -1.28408565       0.01558511      -0.29093528       0.03272237      -0.02192419       0.01961354       0.58121800
O       10.00402337       6.55942578       9.53084678      -0.12398358       1.04219653       0.35769660      -0.03098523       0.00463240       0.03954740      -0.50631123
O       11.09948595       7.76678036       8.00981259       2.34388155       0.69474062       0.46067291       0.01160984      -0.06579447       0.00385004      -0.53222818
C        6.35498580       7.46217918       7.70886597      -0.52719329      -0.45811817      -0.05892726       0.01631034      -0.00115068       0.05062756      -0.03422649
C        5.10738370       7.19203209       8.47459059       0.47086866      -0.23000213      -0.85102223      -0.03344775      -0.16273973      -0.05353779       0.58011737
O        4.00502681       7.72556293       7.93733316      -0.64113914       0.15110844      -0.95661038       0.01734433       0.04842716      -0.02695704      -0.50806749
O        5.07281352       6.54250357       9.48875249       0.67198666       0.03475970      -0.36048774       0.02624221       0.08718063      -0.00286883      -0.53115109
H        9.73181710       8.16939904       5.96793413       0.12419650      -0.02537105       0.28169818      -0.06967711       0.05559857      -0.05976564       0.06039609
H        7.53440121       6.70411481       9.33353550      -0.31324235       0.13602407      -0.00400881       0.00565709       0.03879431       0.00597933       0.07202099
C        8.77026634       7.97488747       6.43191547      -0.03220852      -0.39900459       0.41814332      -0.01925630      -0.03338032      -0.01008691       0.00234713
C        7.55514848       7.14804421       8.34416251      -0.01009358       0.32148149       0.54206680       0.04771269       0.04411753       0.04978875       0.00742031
C        7.57642414       8.22689640       5.77421714      -0.76555189       0.00169609      -0.24781999      -0.03306219       0.06299192       0.05097503      -0.02386865
C        6.36693895       8.01209660       6.42511359      -0.51005631      -0.21610617       0.51764588      -0.01112985      -0.04908235       0.04717860       0.00073433
H       10.88377568       6.51914908       9.94061644      -0.25050322      -0.31423959       0.15345950      -0.00498942       0.00298347      -0.03583499       0.38287006
H        3.25275857       7.50716191       8.51353120      -0.22682651       0.22832699       0.41723110      -0.00126996       0.00994331      -0.06161335       0.38425400
18
Lattice="15.108652899924854 0.0 0.0 0.0 15.108652899924854 0.0 0.0 0.0 15.108652899924854" Properties=species:S:1:pos:R:3:momenta:R:3:forces:R:3:charge:R:1 energy=-1060.2451706675279 free_energy=-1060.2451706675279 dipole="-0.38081766386874505 0.09918267590202576 -0.24715086738430037" stress="0.0 0.0 0.0 0.0 0.0 0.0 0.0 0.0 0.0" pbc="T T T"
H        5.42834119       8.23640171       5.94951151      -0.05932221       0.03082038      -0.08050891      -0.04043555      -0.03474488       0.01848425       0.05467923
H        7.57205181       8.63939536       4.78190519       0.16550007      -0.26744353       0.09241270      -0.05079879       0.05197829      -0.01759381       0.04407359
C        8.77060572       7.44969870       7.71804368       0.96777279      -0.74645419      -0.39070640      -0.01434348       0.02227191       0.06588657      -0.03412431
C       10.07682985       7.27369650       8.40174503      -1.28408565       0.01558511      -0.29093528      -0.07778939      -0.02747422       0.01965833       0.58105501
O        9.98726142       6.56974982       9.53591459      -0.12398358       1.04219653       0.35769660       0.05748187       0.02043738      -0.01182962      -0.50692275
O       11.11409897       7.73211720       8.00002532       2.34388155       0.69474062       0.46067291       0.08556295      -0.05526991      -0.00922170      -0.53153210
C        6.36306857       7.44747045       7.72240775      -0.52719329      -0.45811817      -0.05892726       0.00086289      -0.03111276      -0.03520947      -0.03393503
C        5.10774662       7.16628169       8.46811985       0.47086866      -0.23000213      -0.85102223       0.00753902       0.15752336       0.11575158       0.58032916
O        4.02199691       7.71309725       7.90835954      -0.64113914       0.15110844      -0.95661038      -0.02640010      -0.04270166      -0.03007741      -0.50906100
O        5.05595604       6.55226645       9.50250865       0.67198666       0.03475970      -0.36048774       0.02396622      -0.02467429      -0.05985543      -0.52993111
H        9.71849095       8.18551388       5.95205610       0.12419650      -0.02537105       0.28169818      -0.01406086       0.01926491      -0.05649055       0.05992165
H        7.55564443       6.73201578       9.35155230      -0.31324235       0.13602407      -0.00400881       0.01901966       0.01850105       0.02634130       0.07206350
C        8.76642469       7.97776212       6.42688592      -0.03220852      -0.39900459       0.41814332       0.01113997       0.04894965       0.05773859       0.00253668
C        7.56974663       7.16308664       8.35735532      -0.01009358       0.32148149       0.54206680      -0.02126969      -0.04969892      -0.02048372       0.00740786
C        7.56579708       8.24261776       5.78948565      -0.76555189       0.00169609      -0.24781999       0.02523562      -0.04590415      -0.01826612      -0.02427529
C        6.36434622       7.99913489       6.44041381      -0.51005631      -0.21610617       0.51764588       0.00584855       0.00436572      -0.03926258       0.00087136
H       10.86996511       6.51224720       9.93459208      -0.25050322      -0.31423959       0.15345950       0.02963026      -0.01845763       0.04030684       0.38286837
H        3.25833162       7.52697829       8.47967209      -0.22682651       0.22832699       0.41723110      -0.02118914      -0.01325383      -0.04587706       0.38397517
18
Lattice="15.108652899924854 0.0 0.0 0.0 15.108652899924854 0.0 0.0 0.0 15.108652899924854" Properties=species:S:1:pos:R:3:momenta:R:3:forces:R:3:charge:R:1 energy=-1060.252343351229 free_energy=-1060.252343351229 dipole="-0.3996914095144353 0.12497629976747977 -0.2415649050079859" stress="0.0 0.0 0.0 0.0 0.0 0.0 0.0 0.0 0.0" pbc="T T T"
H        5.42052212       8.21153682       5.95778491      -0.05932221       0.03082038      -0.08050891      -0.00520006      -0.02037792       0.00189177       0.05505749
H        7.54986555       8.66241711       4.79228489       0.16550007      -0.26744353       0.09241270       0.02478898      -0.01709492       0.02629838       0.04400867
C        8.77553495       7.45898718       7.72351232       0.96777279      -0.74645419      -0.39070640      -0.00156800       0.00958427      -0.03937663      -0.03386019
C       10.08242689       7.26613464       8.40211904      -1.28408565       0.01558511      -0.29093528       0.06434711      -0.00413850      -0.02089629       0.58076186
O        9.98705784       6.57697164       9.54432874      -0.12398358       1.04219653       0.35769660       0.00435032       0.00041598       0.03291259      -0.50691783
O       11.13166729       7.69024867       7.99001197       2.34388155       0.69474062       0.46067291      -0.03303639      -0.04083733      -0.02564402      -0.53236672
C        6.36758819       7.43990495       7.72749515      -0.52719329      -0.45811817      -0.05892726       0.00360238       0.03760038      -0.00009176      -0.03417893
C        5.10916747       7.17373123       8.47328148       0.47086866      -0.23000213      -0.85102223       0.01339594      -0.02673641      -0.06301521       0.58080526
O        4.02773124       7.70225085       7.88638145      -0.64113914       0.15110844      -0.95661038       0.00566395       0.01743682       0.03020179      -0.50976327
O        5.05171473       6.55886597       9.50556560       0.67198666       0.03475970      -0.36048774      -0.02554019       0.03374691       0.03786105      -0.52878418
H        9.70463119       8.20188841       5.93336774       0.12419650      -0.02537105       0.28169818       0.01832734       0.01154386       0.05882612       0.05937313
H        7.57150485       6.75368624       9.36673931      -0.31324235       0.13602407      -0.00400881      -0.01719566      -0.01502416      -0.01093447       0.07194852
C        8.76458468       7.99077950       6.43180103      -0.03220852      -0.39900459       0.41814332      -0.01381209       0.01549426      -0.03549448       0.00316944
C        7.57589975       7.16401218       8.36314977      -0.01009358       0.32148149       0.54206680       0.00844263       0.04545348       0.00617672       0.00763466
C        7.56090681       8.24552295       5.79367656      -0.76555189       0.00169609      -0.24781999      -0.02827984       0.00323057      -0.00687996      -0.02447203
C        6.36282026       7.98686414       6.44352593      -0.51005631      -0.21610617       0.51764588      -0.01283609       0.00746206       0.00500055       0.00072391
H       10.87031523       6.50363048       9.93984332      -0.25050322      -0.31423959       0.15345950       0.02227738      -0.01018618       0.01499437       0.38296180
H        3.25276481       7.53209873       8.44568517      -0.22682651       0.22832699       0.41723110      -0.02772770      -0.04757319      -0.01183054       0.38389841
18
Lattice="15.108652899924854 0.0 0.0 0.0 15.108652899924854 0.0 0.0 0.0 15.108652899924854" Properties=species:S:1:pos:R:3:momenta:R:3:forces:R:3:charge:R:1 energy=-1060.2561531755362 free_energy=-1060.2561531755362 dipole="-0.39817863617666693 0.11505175853583463 -0.24807477351134638" stress="0.0 0.0 0.0 0.0 0.0 0.0 0.0 0.0 0.0" pbc="T T T"
H        5.40966725       8.18761333       5.96242356      -0.05932221       0.03082038      -0.08050891       0.01933825       0.00958753      -0.03119270       0.05543895
H        7.54391760       8.67279159       4.79866602       0.16550007      -0.26744353       0.09241270       0.01071416      -0.01639102      -0.02867366       0.04405843
C        8.77989796       7.46622141       7.72325760       0.96777279      -0.74645419      -0.39070640       0.00064621      -0.00985785       0.04340585      -0.03396791
C       10.09136657       7.25477097       8.39791844      -1.28408565       0.01558511      -0.29093528      -0.02967544      -0.00325630      -0.00557485       0.58101890
O        9.99383036       6.58699485       9.55490748      -0.12398358       1.04219653       0.35769660      -0.01868892       0.02274537      -0.02638803      -0.50741331
O       11.14419034       7.64830303       7.96780500       2.34388155       0.69474062       0.46067291       0.01572427      -0.02208826      -0.04288147      -0.53094101
C        6.36956125       7.44645233       7.73237651      -0.52719329      -0.45811817      -0.05892726      -0.01211712       0.00350258       0.02490981      -0.03415151
C        5.10848931       7.17752449       8.47343588       0.47086866      -0.23000213      -0.85102223      -0.02636319       0.02311864       0.04658734       0.58068975
O        4.02843289       7.70046136       7.87839522      -0.64113914       0.15110844      -0.95661038      -0.02004897      -0.01334517      -0.03074251      -0.51004106
O        5.04365676       6.57564634       9.51337762       0.67198666       0.03475970      -0.36048774       0.02284052       0.00692509      -0.01147047      -0.52880921
H        9.70395243       8.21895106       5.94283342       0.12419650      -0.02537105       0.28169818       0.00255744       0.01548695      -0.00600505       0.05942927
H        7.57528363       6.76286370       9.36778660      -0.31324235       0.13602407      -0.00400881      -0.00562768       0.00299077       0.01808066       0.07158161
C        8.76112704       8.00152316       6.43236740      -0.03220852      -0.39900459       0.41814332       0.01823709      -0.00555589       0.05075895       0.00291596
C        7.58049250       7.17990641       8.36738069      -0.01009358       0.32148149       0.54206680      -0.02137618      -0.03719800       0.01009074       0.00727709
C        7.55423346       8.24994443       5.79601495      -0.76555189       0.00169609      -0.24781999       0.03899099       0.01937329       0.02144159      -0.02436184
C        6.35795181       7.98236948       6.44478885      -0.51005631      -0.21610617       0.51764588       0.00649935       0.01267806       0.01005403       0.00068723
H       10.87749670       6.49435758       9.94842280      -0.25050322      -0.31423959       0.15345950      -0.02478465       0.02074938      -0.04795961       0.38281649
H        3.24315599       7.51283619       8.41839631      -0.22682651       0.22832699       0.41723110       0.02313386      -0.02946518       0.00555939       0.38377215
18
Lattice="15.108652899924854 0.0 0.0 0.0 15.108652899924854 0.0 0.0 0.0 15.108652899924854" Properties=species:S:1:pos:R:3:momenta:R:3:forces:R:3:charge:R:1 energy=-1060.2608717989665 free_energy=-1060.2608717989665 dipole="-0.4000431458173866 0.10599681719975004 -0.24506525307791976" stress="0.0 0.0 0.0 0.0 0.0 0.0 0.0 0.0 0.0" pbc="T T T"
H        5.41269392       8.16873775       5.95139743      -0.05932221       0.03082038      -0.08050891       0.05076802       0.04327767       0.02138821       0.05537442
H        7.55073274       8.66739751       4.80100872       0.16550007      -0.26744353       0.09241270       0.00902998       0.00128025       0.02330936       0.04389701
C        8.77819381       7.47184102       7.73405277       0.96777279      -0.74645419      -0.39070640      -0.02777707       0.03110565      -0.02485083      -0.03436157
C       10.09548715       7.24130318       8.38469705      -1.28408565       0.01558511      -0.29093528      -0.01283959       0.00836959       0.00160955       0.58096073
O        9.99402449       6.60886978       9.55891519      -0.12398358       1.04219653       0.35769660       0.01258013      -0.00509449       0.02340888      -0.50699507
O       11.15297437       7.58662951       7.92292656       2.34388155       0.69474062       0.46067291      -0.06699536      -0.04434396       0.00998560      -0.53176561
C        6.36719938       7.46225605       7.74301889      -0.52719329      -0.45811817      -0.05892726       0.01365263       0.01556875      -0.01601655      -0.03445493
C        5.10340202       7.19398591       8.47954488       0.47086866      -0.23000213      -0.85102223       0.02993758      -0.02165827      -0.03623687       0.58046635
O        4.02044917       7.69011064       7.86650301      -0.64113914       0.15110844      -0.95661038       0.01139046      -0.05600433       0.01060531      -0.50986005
O        5.04007430       6.60071910       9.52417431       0.67198666       0.03475970      -0.36048774      -0.01354940       0.00964632       0.02297740      -0.52890816
H        9.70661091       8.24393513       5.96204838       0.12419650      -0.02537105       0.28169818      -0.02014192      -0.01742426       0.01363282       0.05987047
H        7.57023146       6.76739103       9.37831917      -0.31324235       0.13602407      -0.00400881      -0.00675568       0.00636105      -0.00641917       0.07174220
C        8.76314339       8.01676738       6.44813187      -0.03220852      -0.39900459       0.41814332      -0.01859559       0.02781831      -0.02829506       0.00286573
C        7.57698428       7.18657389       8.37817321      -0.01009358       0.32148149       0.54206680       0.01291433       0.02736586      -0.00066471       0.00805684
C        7.55839768       8.26108625       5.80656168      -0.76555189       0.00169609      -0.24781999      -0.02165120      -0.01682882      -0.01871092      -0.02453975
C        6.35909080       7.98877859       6.45014764      -0.51005631      -0.21610617       0.51764588       0.03443246      -0.02177422      -0.01024224       0.00086293
H       10.88057147       6.49420482       9.93616240      -0.25050322      -0.31423959       0.15345950       0.03508833       0.00009758       0.00412224       0.38289101
H        3.23644248       7.46894413       8.39477122      -0.22682651       0.22832699       0.41723110      -0.02148811       0.01223733       0.01039701       0.38389745
18
Lattice="15.108652899924854 0.0 0.0 0.0 15.108652899924854 0.0 0.0 0.0 15.108652899924854" Properties=species:S:1:pos:R:3:momenta:R:3:forces:R:3:charge:R:1 energy=-1060.263730934542 free_energy=-1060.263730934542 dipole="-0.39981399233235937 0.12001119452476118 -0.24717084211917606" stress="0.0 0.0 0.0 0.0 0.0 0.0 0.0 0.0 0.0" pbc="T T T"
H        5.42270135       8.16460977       5.95150938      -0.05932221       0.03082038      -0.08050891      -0.05453198       0.02977692      -0.00780801       0.05530407
H        7.55164786       8.67314301       4.80578140       0.16550007      -0.26744353       0.09241270      -0.00709198       0.00910458      -0.01831998       0.04427058
C        8.77438469       7.48646902       7.74024605       0.96777279      -0.74645419      -0.39070640       0.01814748      -0.00249513       0.02979309      -0.03444559
C       10.09054896       7.22846947       8.37863176      -1.28408565       0.01558511      -0.29093528       0.05358524       0.00122361       0.01042153       0.58063384
O        9.99610998       6.62674654       9.56999671      -0.12398358       1.04219653       0.35769660       0.00303875       0.00906152       0.01642975      -0.50715987
O       11.14983156       7.52215390       7.88662776       2.34388155       0.69474062       0.46067291      -0.00292060      -0.00898093       0.00251716      -0.53252446
C        6.36864816       7.46941658       7.75028055      -0.52719329      -0.45811817      -0.05892726      -0.03074094       0.00059810      -0.00973613      -0.03432356
C        5.10293780       7.19573198       8.48154280       0.47086866      -0.23000213      -0.85102223      -0.02605446      -0.02879486      -0.00506018       0.58057180
O        4.01797845       7.66044533       7.84816997      -0.64113914       0.15110844      -0.95661038      -0.01202931      -0.02101995      -0.02110543      -0.51001726
O        5.03582412       6.62396144       9.53809811       0.67198666       0.03475970      -0.36048774       0.03089955       0.01318054       0.00866754      -0.52890431
H        9.70482791       8.26083676       5.97342671       0.12419650      -0.02537105       0.28169818       0.02937015      -0.00532489      -0.01512986       0.06030673
H        7.57126197       6.78050528       9.38731718      -0.31324235       0.13602407      -0.00400881       0.00109272       0.01215808       0.01030519       0.07197866
C        8.76127131       8.03367956       6.45556071      -0.03220852      -0.39900459       0.41814332       0.02508833      -0.03529261       0.00672421       0.00317313
C        7.57723975       7.20277784       8.38894753      -0.01009358       0.32148149       0.54206680      -0.02293612      -0.01503566      -0.00303879       0.00798370
C        7.55889980       8.26673265       5.80982802      -0.76555189       0.00169609      -0.24781999       0.01278441       0.01272006       0.00667765      -0.02450726
C        6.36414701       7.98591175       6.45424173      -0.51005631      -0.21610617       0.51764588      -0.02619017       0.02761953      -0.01005624       0.00093592
H       10.88912577       6.49214024       9.92736417      -0.25050322      -0.31423959       0.15345950      -0.00637638       0.00184068      -0.01191207       0.38290015
H        3.22931739       7.44580057       8.37298383      -0.22682651       0.22832699       0.41723110       0.01486533      -0.00033958       0.01063057       0.38382374
18
Lattice="15.108652899924854 0.0 0.0 0.0 15.108652899924854 0.0 0.0 0.0 15.108652899924854" Properties=species:S:1:pos:R:3:momenta:R:3:forces:R:3:charge:R:1 energy=-1060.265684816366 free_energy=-1060.265684816366 dipole="-0.3998215427259206 0.1258300223603227 -0.24606907803409409" stress="0.0 0.0 0.0 0.0 0.0 0.0 0.0 0.0 0.0" pbc="T T T"
H        5.41921594       8.18262380       5.94926879      -0.05932221       0.03082038      -0.08050891       0.02128336       0.00805672       0.01240665       0.05535633
H        7.55584269       8.67298321       4.80460660       0.16550007      -0.26744353       0.09241270       0.01163776       0.00991655       0.00900225       0.04404635
C        8.77257596       7.49155733       7.74719621       0.96777279      -0.74645419      -0.39070640       0.00926906      -0.02329723      -0.02113139      -0.03466790
C       10.09048654       7.22452095       8.38125045      -1.28408565       0.01558511      -0.29093528      -0.01688600      -0.00275252      -0.01296210       0.58051773
O       10.00037062       6.63673450       9.57987388      -0.12398358       1.04219653       0.35769660       0.01105363       0.02663399      -0.01479367      -0.50679289
O       11.14833389       7.49651030       7.87421852       2.34388155       0.69474062       0.46067291       0.01700823      -0.00116097       0.01459321      -0.53261134
C        6.36384329       7.47347811       7.74592645      -0.52719329      -0.45811817      -0.05892726       0.02013126      -0.02099581       0.00194719      -0.03452058
C        5.10083482       7.19103883       8.47844300       0.47086866      -0.23000213      -0.85102223       0.00520408       0.03203724       0.01407861       0.58052849
O        4.01105008       7.63568385       7.83965288      -0.64113914       0.15110844      -0.95661038      -0.01134465      -0.02408561      -0.00603687      -0.50981101
O        5.04365275       6.63727303       9.54542602       0.67198666       0.03475970      -0.36048774      -0.00052973       0.00876654      -0.02189127      -0.52912647
H        9.71038449       8.25971515       5.97775985       0.12419650      -0.02537105       0.28169818      -0.02512190      -0.03173127       0.00619800       0.06047491