18
Lattice="15.108652899924854 0.0 0.0 0.0 15.108652899924854 0.0 0.0 0.0 15.108652899924854" Properties=species:S:1:pos:R:3:momenta:R:3:forces:R:3:charge:R:1 energy=-1060.0810782758658 free_energy=-1060.0810782758658 dipole="-0.3812438126651578 0.3680991708340559 -0.09477236728459146" stress="0.0 0.0 0.0 0.0 0.0 0.0 0.0 0.0 0.0" pbc="T T T"
H        5.40180285       8.58405284       6.05807572      -0.26064538       0.19305657       0.27278828      -0.01991801      -0.21977761       0.04626660       0.05415570
H        7.60659816       9.19263037       5.05583758       0.11474186       0.25344833       0.41781569      -0.12903831      -0.26502743      -0.02568259       0.04464001
C        8.72278973       7.52330680       7.79635881      -0.50533007       0.24583691       0.14004249       0.48153233       0.06735072       0.12024082      -0.03201642
C       10.06039976       7.22271305       8.41460811       0.31045957      -0.51406619      -0.74337672       0.09690739      -0.33133622      -0.16572943       0.58034635
O       10.07873595       6.73131927       9.66308440       1.67909900       1.53578920      -0.24700968      -0.37518474       0.28115279      -0.00485273      -0.50563739
O       11.08729481       7.36628918       7.80276971      -1.28337492      -0.16311908      -0.14505197       0.17707725       0.23592366      -0.15074699      -0.53225783
C        6.32068087       7.51635768       7.71093261       0.69605055      -0.75868116      -0.71067158      -0.03879616       0.21030064       0.30480689      -0.03416723
C        5.11969406       7.07539193       8.46000501      -0.04797516      -0.39668589      -0.86305282      -0.40179903      -0.06010587       0.09752250       0.58077800
O        3.95707273       7.62006905       8.09707287      -1.28223328       0.62626155       1.44374827      -0.18773535       0.22900340      -0.19165661      -0.50746685
O        5.17262294       6.28385871       9.36548047       0.48433699      -0.14493447      -0.35554839       0.06838179      -0.16302527       0.21100423      -0.53467422
H        9.68646699       8.34303079       6.08342067       0.03145077       0.26334568       0.23720123      -0.08521365       0.10485320      -0.02621565       0.06058430
H        7.46883013       6.80994319       9.38091193      -0.14144160       0.32084383      -0.03564741      -0.00697021      -0.17018069       0.05524586       0.07326569
C        8.72206682       8.15134593       6.54682189      -0.38355112      -0.52921426      -1.62489669       0.35521917       0.03518312      -0.03252595       0.00215136
C        7.51053305       7.24245756       8.39145605       0.34025942      -0.60859733       0.92039809      -0.04621623      -0.15405627      -0.09384607       0.00618482
C        7.54525186       8.55795452       5.93715379      -0.29875338      -1.11190120       0.36066404       0.16581743       0.14821911       0.09141339      -0.02446478
C        6.32346859       8.23229048       6.51062441       0.43938986       0.24260700       0.86896487       0.04993847       0.05371106       0.21817347       0.00175622
H       11.00606505       6.64578382       9.96390497       0.04476340       0.19513141       0.01981966      -0.32023377      -0.03106877      -0.24459423       0.38314377
H        3.25754106       7.29770818       8.69961009       0.06275352       0.35087907       0.04381263       0.21623162       0.02888043      -0.20882349       0.38367848
18
Lattice="15.108652899924854 0.0 0.0 0.0 15.108652899924854 0.0 0.0 0.0 15.108652899924854" Properties=species:S:1:pos:R:3:momenta:R:3:forces:R:3:charge:R:1 energy=-1060.1890020180028 free_energy=-1060.1890020180028 dipole="-0.4041363641257233 0.2740000551505373 -0.11127536862202958" stress="0.0 0.0 0.0 0.0 0.0 0.0 0.0 0.0 0.0" pbc="T T T"
H        5.41110752       8.53084333       6.07426050      -0.26064538       0.19305657       0.27278828       0.09488644      -0.05042724       0.12204417       0.05302685
H        7.58069986       9.12797486       5.04763520       0.11474186       0.25344833       0.41781569      -0.03988024      -0.01092682      -0.07675860       0.04364991
C        8.74760968       7.51757079       7.78954206      -0.50533007       0.24583691       0.14004249      -0.00880267       0.04084578      -0.19844697      -0.03356077
C       10.07574262       7.20800359       8.37790549       0.31045957      -0.51406619      -0.74337672       0.12007589       0.32944762      -0.17359482       0.58048051
O       10.02316185       6.78087163       9.63682367       1.67909900       1.53578920      -0.24700968      -0.02883294      -0.14998647       0.07852307      -0.50281585
O       11.12085760       7.38668906       7.79773716      -1.28337492      -0.16311908      -0.14505197      -0.22624956      -0.15598569       0.13449224      -0.53660121
C        6.32622838       7.55155825       7.77225611       0.69605055      -0.75868116      -0.71067158       0.13481901      -0.03683765      -0.07874623      -0.03477600
C        5.10356222       7.08412844       8.47923356      -0.04797516      -0.39668589      -0.86305282       0.08811959       0.12978154       0.01907839       0.58067079
O        3.95924824       7.63794326       8.07449071      -1.28223328       0.62626155       1.44374827      -0.00456759       0.07120487      -0.04522955      -0.50622276
O        5.13930068       6.27992112       9.37432537       0.48433699      -0.14493447      -0.35554839      -0.06480705      -0.07214998       0.10984825      -0.53264753
H        9.70102285       8.37414850       6.06426989       0.03145077       0.26334568       0.23720123      -0.06447777       0.03493317       0.08166073       0.06144911
H        7.47733587       6.76696904       9.37236955      -0.14144160       0.32084383      -0.03564741       0.16591556      -0.21672961       0.07149953       0.07219731
C        8.75296792       8.17194558       6.55559043      -0.38355112      -0.52921426      -1.62489669      -0.07526539       0.07846464      -0.08587520       0.00274717
C        7.53148511       7.22085880       8.39332631       0.34025942      -0.60859733       0.92039809       0.08713741       0.11284397       0.06461591       0.00721232
C        7.56039909       8.57227566       5.97640460      -0.29875338      -1.11190120       0.36066404      -0.10337124      -0.07338845      -0.05842358      -0.02521390
C        6.34153573       8.24834443       6.56293094       0.43938986       0.24260700       0.86896487      -0.08403226       0.01643151       0.00132117       0.00141281
H       10.93570659       6.63397378       9.92754372       0.04476340       0.19513141       0.01981966       0.08982443      -0.06145036       0.16430805       0.38413216
H        3.25994357       7.30248323       8.66148383       0.06275352       0.35087907       0.04381263      -0.08049160       0.01392916      -0.13031654       0.38485908
18
Lattice="15.108652899924854 0.0 0.0 0.0 15.108652899924854 0.0 0.0 0.0 15.108652899924854" Properties=species:S:1:pos:R:3:momenta:R:3:forces:R:3:charge:R:1 energy=-1060.2339526179337 free_energy=-1060.2339526179337 dipole="-0.4051090047111176 0.27732731601045235 -0.12813724229606296" stress="0.0 0.0 0.0 0.0 0.0 0.0 0.0 0.0 0.0" pbc="T T T"
H        5.41150937       8.49593627       6.11462321      -0.26064538       0.19305657       0.27278828      -0.12286634       0.04621992       0.06751289       0.05346798
H        7.54403095       9.09317023       5.01274692       0.11474186       0.25344833       0.41781569      -0.09124147      -0.03687111       0.03361621       0.04442187
C        8.75766524       7.54263985       7.77098815      -0.50533007       0.24583691       0.14004249      -0.06892647       0.05274276       0.20248261      -0.03416691
C       10.07926486       7.23770682       8.37120050       0.31045957      -0.51406619      -0.74337672       0.02799318      -0.18998499       0.02262525       0.58042718
O        9.99984675       6.77840299       9.62640849       1.67909900       1.53578920      -0.24700968       0.05019198       0.04038636      -0.01660555      -0.50752565
O       11.13000599       7.37525153       7.79967129      -1.28337492      -0.16311908      -0.14505197       0.03211636       0.05410651       0.03202960      -0.53247119
C        6.35125180       7.55490104       7.81012563       0.69605055      -0.75868116      -0.71067158      -0.03359226       0.01939715       0.03186542      -0.03404754
C        5.10730540       7.10343685       8.50444455      -0.04797516      -0.39668589      -0.86305282       0.08735212       0.01718893      -0.08480711       0.57986812
O        3.97809814       7.66844057       8.05715323      -1.28223328       0.62626155       1.44374827       0.14148416      -0.03246692       0.03557070      -0.50780658
O        5.10654657       6.28820676       9.39117111       0.48433699      -0.14493447      -0.35554839      -0.01338728       0.09203653       0.00065092      -0.52966172
H        9.69416426       8.41185990       6.06804147       0.03145077       0.26334568       0.23720123       0.01380807       0.05722330      -0.09238842       0.06099612
H        7.54823513       6.68896440       9.36292322      -0.14144160       0.32084383      -0.03564741       0.09511676       0.10322422      -0.11887916       0.07260409
C        8.74295896       8.19634997       6.53814078      -0.38355112      -0.52921426      -1.62489669       0.02452046       0.01495833       0.12798657       0.00219771
C        7.56487392       7.22521648       8.41591859       0.34025942      -0.60859733       0.92039809      -0.06578044      -0.10835348      -0.12199538       0.00794224
C        7.54134014       8.56548459       5.96075231      -0.29875338      -1.11190120       0.36066404       0.00591757      -0.03425484       0.01932441      -0.02383888
C        6.34778361       8.24718348       6.59623876       0.43938986       0.24260700       0.86896487      -0.06023176      -0.10897105      -0.06137150       0.00069895
H       10.89976407       6.61000491       9.95068414       0.04476340       0.19513141       0.01981966      -0.01287256      -0.02447786       0.01393348       0.38254813
H        3.24327024       7.31334671       8.58689675       0.06275352       0.35087907       0.04381263      -0.00960208       0.03789625      -0.09155095       0.38434606
18
Lattice="15.108652899924854 0.0 0.0 0.0 15.108652899924854 0.0 0.0 0.0 15.108652899924854" Properties=species:S:1:pos:R:3:momenta:R:3:forces:R:3:charge:R:1 energy=-1060.251382934045 free_energy=-1060.251382934045 dipole="-0.40723482711990344 0.254225277805664 -0.1478219545654061" stress="0.0 0.0 0.0 0.0 0.0 0.0 0.0 0.0 0.0" pbc="T T T"
H        5.38842269       8.49043522       6.14666954      -0.26064538       0.19305657       0.27278828      -0.01272749       0.00642734      -0.01691586       0.05441540
H        7.51110669       9.06736480       5.00966804       0.11474186       0.25344833       0.41781569       0.00598672      -0.00812035      -0.00275342       0.04396151
C        8.76361185       7.55955082       7.77925827      -0.50533007       0.24583691       0.14004249       0.06518918      -0.04025323      -0.05698056      -0.03415327
C       10.08472954       7.23225408       8.37358813       0.31045957      -0.51406619      -0.74337672       0.02841141       0.02614612       0.05984220       0.58111807
O        9.99852282       6.77444110       9.62796450       1.67909900       1.53578920      -0.24700968      -0.00062497      -0.02762237       0.01999657      -0.50743993
O       11.13711286       7.37488136       7.80717861      -1.28337492      -0.16311908      -0.14505197       0.02601675      -0.00005525      -0.00095898      -0.53171195
C        6.35761031       7.55291220       7.81770228       0.69605055      -0.75868116      -0.71067158      -0.00468791      -0.08700793       0.00473039      -0.03367860
C        5.11754936       7.11150169       8.51004912      -0.04797516      -0.39668589      -0.86305282      -0.05958893      -0.01013717       0.00781034       0.58073127
O        4.00179848       7.68418844       8.04409149      -1.28223328       0.62626155       1.44374827      -0.01938009       0.01489530      -0.07206044      -0.50884073
O        5.09789472       6.30629634       9.40442534       0.48433699      -0.14493447      -0.35554839       0.03105667       0.01706717       0.04320566      -0.53000522
H        9.68327594       8.43961736       6.05878770       0.03145077       0.26334568       0.23720123      -0.02786791       0.04967980       0.00809351       0.06027201
H        7.59188022       6.67163717       9.34474292      -0.14144160       0.32084383      -0.03564741      -0.07186306       0.01459172       0.02013764       0.07203868
C        8.74092473       8.21509472       6.54744810      -0.38355112      -0.52921426      -1.62489669      -0.01077326      -0.01199556      -0.04669282       0.00261890
C        7.57324992       7.21240747       8.40564097       0.34025942      -0.60859733       0.92039809       0.05138603       0.00631955       0.02008849       0.00763487
C        7.53061308       8.55246244       5.96335358      -0.29875338      -1.11190120       0.36066404      -0.04053191       0.02518012      -0.00436523      -0.02420441
C        6.33838328       8.23085019       6.59781474       0.43938986       0.24260700       0.86896487      -0.01057939       0.00596334       0.06575530       0.00058301
H       10.89020662       6.59319122       9.96625917       0.04476340       0.19513141       0.01981966       0.01455031      -0.00810958      -0.02936486       0.38273534
H        3.24102229       7.32741674       8.53348660       0.06275352       0.35087907       0.04381263       0.03602785       0.02703098      -0.01956794       0.38392507
18
Lattice="15.108652899924854 0.0 0.0 0.0 15.108652899924854 0.0 0.0 0.0 15.108652899924854" Properties=species:S:1:pos:R:3:momenta:R:3:forces:R:3:charge:R:1 energy=-1060.2560193642896 free_energy=-1060.2560193642896 dipole="-0.41365903406778226 0.2515124533460142 -0.15748645152603757" stress="0.0 0.0 0.0 0.0 0.0 0.0 0.0 0.0 0.0" pbc="T T T"
H        5.38080528       8.48900286       6.15654959      -0.26064538       0.19305657       0.27278828       0.01930796      -0.01427351       0.01927678       0.05475088
H        7.49968546       9.05902687       5.00956747       0.11474186       0.25344833       0.41781569      -0.00767679       0.02576944       0.02112760       0.04388636
C        8.77220928       7.55567060       7.77474454      -0.50533007       0.24583691       0.14004249      -0.02629245      -0.00591183      -0.00186172      -0.03388796
C       10.09263301       7.23350505       8.37871775       0.31045957      -0.51406619      -0.74337672      -0.01225442       0.01113421      -0.04509602       0.58097782
O       10.00089035       6.76892023       9.63038688       1.67909900       1.53578920      -0.24700968       0.00694106      -0.00337589      -0.01965357      -0.50712433
O       11.14761982       7.37643676       7.81667539      -1.28337492      -0.16311908      -0.14505197      -0.00061182       0.01624515       0.01832920      -0.53159739
C        6.36147358       7.53680478       7.81836705       0.69605055      -0.75868116      -0.71067158       0.01314999       0.04221408      -0.02030902      -0.03390623
C        5.11802474       7.11040289       8.51100784      -0.04797516      -0.39668589      -0.86305282       0.02128619      -0.00299123       0.02364748       0.58067278
O        4.01087891       7.68455465       8.02512134      -1.28223328       0.62626155       1.44374827       0.00224270      -0.04264622      -0.02182869      -0.50910245
O        5.09319184       6.32207811       9.42000504       0.48433699      -0.14493447      -0.35554839      -0.04276581       0.02289818       0.02788246      -0.52955204
H        9.67302338       8.46365732       6.05442206       0.03145077       0.26334568       0.23720123      -0.02029248      -0.00126554       0.00598258       0.05963794
H        7.58809075       6.67202505       9.34545177      -0.14144160       0.32084383      -0.03564741       0.00865402      -0.01542629       0.03314557       0.07186179
C        8.73678063       8.21528770       6.54359630      -0.38355112      -0.52921426      -1.62489669       0.00025801       0.01289229       0.01854357       0.00284200
C        7.58183513       7.20615674       8.40309169       0.34025942      -0.60859733       0.92039809      -0.02367339      -0.01702458       0.00127123       0.00747866
C        7.52084612       8.55155194       5.96734705      -0.29875338      -1.11190120       0.36066404       0.03345286      -0.02560387      -0.00312278      -0.02459082
C        6.33202551       8.22669357       6.60641534       0.43938986       0.24260700       0.86896487       0.02738665      -0.00779810      -0.06082331       0.00073381
H       10.89340768       6.58418411       9.96419035       0.04476340       0.19513141       0.01981966       0.01697864      -0.01115961      -0.00123450       0.38292894
H        3.24449393       7.34054409       8.51247162       0.06275352       0.35087907       0.04381263      -0.01609095       0.01632334       0.00472314       0.38399024
18
Lattice="15.108652899924854 0.0 0.0 0.0 15.108652899924854 0.0 0.0 0.0 15.108652899924854" Properties=species:S:1:pos:R:3:momenta:R:3:forces:R:3:charge:R:1 energy=-1060.2583595836404 free_energy=-1060.2583595836404 dipole="-0.41396743309936207 0.2551527333618464 -0.16173290740866136" stress="0.0 0.0 0.0 0.0 0.0 0.0 0.0 0.0 0.0" pbc="T T T"
H        5.38149006       8.48436319       6.16234509      -0.26064538       0.19305657       0.27278828       0.00017386      -0.01412773      -0.02829078       0.05509998
H        7.49510970       9.06656826       5.01448532       0.11474186       0.25344833       0.41781569       0.02268183       0.00874352      -0.00250424       0.04409731
C        8.77209167       7.54934040       7.77327876      -0.50533007       0.24583691       0.14004249      -0.00064724       0.01936523       0.02454731      -0.03382395
C       10.09513607       7.23507531       8.37637752       0.31045957      -0.51406619      -0.74337672      -0.00282102      -0.02629448       0.01446528       0.58085219
O       10.00490788       6.76223680       9.62566036       1.67909900       1.53578920      -0.24700968       0.00282534      -0.01448929      -0.00573105      -0.50756798
O       11.15215710       7.38683160       7.82087639      -1.28337492      -0.16311908      -0.14505197      -0.01998554       0.03619304      -0.02901196      -0.53143366
C        6.36364094       7.53247965       7.81814822       0.69605055      -0.75868116      -0.71067158      -0.01058406      -0.04422756       0.02884923      -0.03433790
C        5.11774198       7.11121156       8.51461115      -0.04797516      -0.39668589      -0.86305282      -0.00757186       0.01331231      -0.03596508       0.58059163
O        4.01345249       7.67067410       8.00463890      -1.28223328       0.62626155       1.44374827      -0.01014390      -0.00131673      -0.00282458      -0.50949748
O        5.08321235       6.34174575       9.43926386       0.48433699      -0.14493447      -0.35554839       0.02098808       0.05370456       0.00629858      -0.52889573
H        9.66619149       8.47592584       6.05555150       0.03145077       0.26334568       0.23720123       0.05444488      -0.00996393       0.01777562       0.05951164
H        7.58663803       6.67014107       9.35246311      -0.14144160       0.32084383      -0.03564741       0.01922367       0.00718665      -0.03712353       0.07192090
C        8.73563982       8.21655842       6.54636468      -0.38355112      -0.52921426      -1.62489669      -0.00375753      -0.02175651      -0.01183135       0.00293133
C        7.58223195       7.19864863       8.40469107       0.34025942      -0.60859733       0.92039809       0.01055248       0.00327309      -0.00136177       0.00758249
C        7.52172789       8.54679568       5.96499693      -0.29875338      -1.11190120       0.36066404      -0.02984821       0.01789684       0.02520459      -0.02442411
C        6.33484516       8.21760944       6.60247281       0.43938986       0.24260700       0.86896487      -0.02830155      -0.01873551       0.05314646       0.00079482
H       10.89841858       6.57723667       9.95830080       0.04476340       0.19513141       0.01981966      -0.00508200       0.00124851      -0.01165387       0.38274081
H        3.24328224       7.35306098       8.50360264       0.06275352       0.35087907       0.04381263      -0.01214725      -0.01001201      -0.00398886       0.38385771
18
Lattice="15.108652899924854 0.0 0.0 0.0 15.108652899924854 0.0 0.0 0.0 15.108652899924854" Properties=species:S:1:pos:R:3:momenta:R:3:forces:R:3:charge:R:1 energy=-1060.262288403711 free_energy=-1060.262288403711 dipole="-0.40417197847368835 0.23902114370187952 -0.16619907341139978" stress="0.0 0.0 0.0 0.0 0.0 0.0 0.0 0.0 0.0" pbc="T T T"
H        5.38275875       8.46498646       6.16108910      -0.26064538       0.19305657       0.27278828      -0.00805831      -0.01340113      -0.02104298       0.05545609
H        7.49581054       9.08331710       5.03292190       0.11474186       0.25344833       0.41781569      -0.00409208      -0.01867798      -0.01745776       0.04392170
C        8.77019449       7.54388677       7.77524762      -0.50533007       0.24583691       0.14004249       0.00041310      -0.00073577      -0.01148994      -0.03436592
C       10.09564101       7.23697174       8.37235276       0.31045957      -0.51406619      -0.74337672       0.00270859       0.01625755      -0.00193024       0.58093290
O       10.01393532       6.73841803       9.61123052       1.67909900       1.53578920      -0.24700968       0.01019385      -0.02105160      -0.00378311      -0.50720883
O       11.14693949       7.42249330       7.81574502      -1.28337492      -0.16311908      -0.14505197       0.01381373      -0.00398428       0.02508542      -0.53197475
C        6.36256161       7.51195592       7.81783759       0.69605055      -0.75868116      -0.71067158      -0.00099106       0.02287156      -0.02404977      -0.03416550
C        5.11090020       7.11701325       8.51430437      -0.04797516      -0.39668589      -0.86305282      -0.00249096       0.00264200       0.04124120       0.58060783
O        4.00848994       7.64234250       7.96408866      -1.28223328       0.62626155       1.44374827       0.00268431       0.00938922       0.01526427      -0.50990007
O        5.07220713       6.40397977       9.48270488       0.48433699      -0.14493447      -0.35554839      -0.01347592       0.00943879       0.03163576      -0.52920381
H        9.67159285       8.48628288       6.07190879       0.03145077       0.26334568       0.23720123      -0.02112320      -0.02813885       0.01102903       0.06008347
H        7.59729783       6.66440475       9.35531657      -0.14144160       0.32084383      -0.03564741      -0.01762547      -0.01506723       0.01118767       0.07187471
C        8.73612639       8.21385917       6.55007702      -0.38355112      -0.52921426      -1.62489669      -0.00317054       0.03346653       0.01617006       0.00315974
C        7.58285280       7.18872525       8.40703117       0.34025942      -0.60859733       0.92039809      -0.00873078      -0.01836784      -0.01504217       0.00798704
C        7.52044873       8.54402286       5.97266506      -0.29875338      -1.11190120       0.36066404       0.01496125       0.03163225      -0.00368088      -0.02459804
C        6.33470627       8.19930377       6.60453005       0.43938986       0.24260700       0.86896487       0.00929035       0.03366414      -0.03039683       0.00064268
H       10.90935021       6.56464020       9.94291970       0.04476340       0.19513141       0.01981966       0.02168653      -0.00493731      -0.00407761       0.38289032
H        3.23610183       7.36989962       8.48615834       0.06275352       0.35087907       0.04381263       0.00400661      -0.03500004      -0.01866211       0.38386044
18
Lattice="15.108652899924854 0.0 0.0 0.0 15.108652899924854 0.0 0.0 0.0 15.108652899924854" Properties=species:S:1:pos:R:3:momenta:R:3:forces:R:3:charge:R:1 energy=-1060.264420182182 free_energy=-1060.264420182182 dipole="-0.40211600853108026 0.22026303918797827 -0.18264994368211435" stress="0.0 0.0 0.0 0.0 0.0 0.0 0.0 0.0 0.0" pbc="T T T"
H        5.38190956       8.45044085       6.15096079      -0.26064538       0.19305657       0.27278828       0.01120392       0.01023022       0.00124423       0.05548015
H        7.49658510       9.08642908       5.03339968       0.11474186       0.25344833       0.41781569       0.00343748      -0.00498586       0.00483663       0.04409118
C        8.76878918       7.54113213       7.77680114      -0.50533007       0.24583691       0.14004249      -0.00203218       0.00698681       0.01271055      -0.03454876
C       10.09746956       7.23897324       8.37170610       0.31045957      -0.51406619      -0.74337672      -0.00223717      -0.02103951       0.00002268       0.58080555
O       10.02187177       6.71888255       9.60212060       1.67909900       1.53578920      -0.24700968       0.00104479      -0.00748350       0.00367376      -0.50707101
O       11.14824913       7.44255190       7.82013671      -1.28337492      -0.16311908      -0.14505197      -0.00554449       0.01311875       0.01012495      -0.53207019
C        6.36062914       7.50701727       7.81555200       0.69605055      -0.75868116      -0.71067158       0.00333960       0.01921041       0.01759841      -0.03455962
C        5.10808058       7.12461827       8.52274438      -0.04797516      -0.39668589      -0.86305282       0.01309133       0.02128767      -0.01634786       0.58052043
O        4.00757553       7.63033404       7.95065150      -1.28223328       0.62626155       1.44374827      -0.00564567      -0.00143070       0.00357742      -0.50998714
O        5.06472068       6.44343588       9.51373736       0.48433699      -0.14493447      -0.35554839       0.02761536       0.02120711      -0.01333926      -0.52877603
H        9.67305807       8.48371453       6.08234318       0.03145077       0.26334568       0.23720123      -0.00002324       0.02773969      -0.01448739       0.06026505
H        7.59574562       6.65654596       9.35449474      -0.14144160       0.32084383      -0.03564741      -0.02604729      -0.01335590      -0.02015698       0.07173642
C        8.73455770       8.22170056       6.55784403      -0.38355112      -0.52921426      -1.62489669       0.00014446      -0.01733971      -0.00530475       0.00298107
C        7.58070531       7.17977712       8.40463185       0.34025942      -0.60859733       0.92039809       0.00109725       0.03097867       0.01684538       0.00796106
C        7.52092573       8.55262191       5.97655751      -0.29875338      -1.11190120       0.36066404      -0.00899527      -0.03235518      -0.00181179      -0.02444967
C        6.33438851       8.19805240       6.60233491       0.43938986       0.24260700       0.86896487      -0.00663036      -0.01582685       0.01038085       0.00092734
H       10.92065187       6.55641045       9.93164884       0.04476340       0.19513141       0.01981966       0.00368820      -0.00966540      -0.00806827       0.38290491
H        3.23200235       7.36386522       8.47046379       0.06275352       0.35087907       0.04381263      -0.00750672      -0.02727673      -0.00149857       0.38378925
18
Lattice="15.108652899924854 0.0 0.0 0.0 15.108652899924854 0.0 0.0 0.0 15.108652899924854" Properties=species:S:1:pos:R:3:momenta:R:3:forces:R:3:charge:R:1 energy=-1060.266096686196 free_energy=-1060.266096686196 dipole="-0.4053648430585781 0.19658041842028126 -0.20067479709725208" stress="0.0 0.0 0.0 0.0 0.0 0.0 0.0 0.0 0.0" pbc="T T T"
H        5.38371939       8.44348566       6.14270847      -0.26064538       0.19305657       0.27278828      -0.00967113       0.01378484       0.00953094       0.05549139
H        7.49836028       9.08452792       5.03558912       0.11474186       0.25344833       0.41781569       0.00736352      -0.01819374      -0.01124278       0.04404506
C        8.76817673       7.54046135       7.78135425      -0.50533007       0.24583691       0.14004249       0.00212528       0.00443918      -0.00327333      -0.03441691
C       10.09800319       7.23691092       8.37356725       0.31045957      -0.51406619      -0.74337672      -0.00579086       0.02300390       0.01004657       0.58067453
O       10.02906709       6.69734313       9.59572757       1.67909900       1.53578920      -0.24700968      -0.00616035      -0.01155097      -0.00523544      -0.50678338
O       11.14758193       7.46247279       7.82806355      -1.28337492      -0.16311908      -0.14505197      -0.00104959       0.00068905      -0.00910549      -0.53249244
C        6.35955092       7.51387808       7.81783969       0.69605055      -0.75868116      -0.71067158      -0.00145152       0.01427643      -0.00259094      -0.03466801
C        5.10812279       7.13957431       8.52783557      -0.04797516      -0.39668589      -0.86305282      -0.00214367       0.01271084      -0.00664345       0.58060589
O        4.00376347       7.61970719       7.94165062      -1.28223328       0.62626155       1.44374827      -0.00532218      -0.01391198      -0.01675802      -0.50998813
O        5.07035821       6.48270658       9.53497094       0.48433699      -0.14493447      -0.35554839      -0.00308569      -0.01648412       0.02578678      -0.52909702
H        9.67080935       8.49128540       6.08604020       0.03145077       0.26334568       0.23720123       0.00059312       0.00759430       0.00797131       0.06027877