18
Lattice="15.108652899924854 0.0 0.0 0.0 15.108652899924854 0.0 0.0 0.0 15.108652899924854" Properties=species:S:1:pos:R:3:momenta:R:3:forces:R:3:charge:R:1 energy=-1060.1346882401072 free_energy=-1060.1346882401072 dipole="-0.4504057705506962 0.18584899614290648 -0.24460739651201238" stress="0.0 0.0 0.0 0.0 0.0 0.0 0.0 0.0 0.0" pbc="T T T"
H        5.35199349       8.01650615       5.94226705       0.14695706       0.00436762      -0.11606682       0.15257676       0.02411269       0.14483889       0.05630506
H        7.46392039       8.65083671       4.83042327       0.24400415      -0.01955530      -0.24604541       0.02813261       0.07650756      -0.32030546       0.04427485
C        8.77817863       7.57920517       7.77719350       0.71233642       1.10959498      -0.05003591      -0.26189985       0.01177374      -0.17507153      -0.03289911
C       10.08976403       7.26499028       8.41705226      -0.97412983       0.43569304      -0.25295872      -0.38475183      -0.04664202       0.17935126       0.58291795
O        9.89915950       6.58382773       9.55316948      -1.15128125      -0.42558669       0.23218454      -0.00073861      -0.04002849       0.20388468      -0.50954679
O       11.18507638       7.53019534       8.00671017       0.61641227      -1.69976584      -0.91185618       0.02177915       0.17739418      -0.27885764      -0.52701528
C        6.36123961       7.47304966       7.78756323      -0.25670663      -0.51948629       0.02606060       0.13410488      -0.02623559      -0.20874863      -0.03530045
C        5.12059573       7.16235539       8.52953276      -0.52160264       0.41321985      -0.90389107      -0.15722562       0.20888144      -0.23782134       0.58326446
O        4.08579695       7.73501980       7.91184718      -1.32041836       0.72205267      -0.50547398      -0.48372694       0.13577272      -0.05542278      -0.51176914
O        5.01356721       6.51922778       9.53560021       0.43318303      -1.23360680       0.79151251       0.12086007      -0.06106207       0.16432232      -0.52576241
H        9.62717400       8.39528447       5.98022747       0.17274139      -0.18957286       0.08112288       0.00504741      -0.18972699      -0.02256140       0.05663224
H        7.49989441       6.98155035       9.45723131       0.15779781       0.06805984       0.05473122       0.36492786      -0.21970467       0.38826403       0.07146362
C        8.71044267       8.08348322       6.47251866       0.85444320       0.93138475      -0.02625374       0.07101389       0.16590509       0.12304465       0.00051606
C        7.57586667       7.30839167       8.43824123       1.35306758      -0.11499178       0.64947075       0.03778911       0.03274231      -0.37734586       0.00566600
C        7.48835678       8.25131273       5.82778201      -0.69732032       0.57196411      -0.97173680       0.14510477      -0.04245490       0.33983723      -0.02590992
C        6.30096885       7.92784711       6.46683403       0.15784322       0.45020354       1.23385977       0.24771123      -0.06168229      -0.00644606       0.00276880
H       10.75392975       6.38911616       9.96475168      -0.03761756       0.05037161       0.71929163       0.12102078      -0.02587167       0.00633757       0.38187097
H        3.26781673       7.58315275       8.40374659       0.11029045      -0.55434646       0.19608473      -0.16172565      -0.11968105       0.13270007       0.38252308
18
Lattice="15.108652899924854 0.0 0.0 0.0 15.108652899924854 0.0 0.0 0.0 15.108652899924854" Properties=species:S:1:pos:R:3:momenta:R:3:forces:R:3:charge:R:1 energy=-1060.2163964097203 free_energy=-1060.2163964097203 dipole="-0.4324722801184542 0.15626202996262167 -0.2283046683729991" stress="0.0 0.0 0.0 0.0 0.0 0.0 0.0 0.0 0.0" pbc="T T T"
H        5.37661372       8.02289298       5.95911474       0.14695706       0.00436762      -0.11606682       0.01119672       0.04862603      -0.07142959       0.05511056
H        7.47619911       8.65089462       4.81103335       0.24400415      -0.01955530      -0.24604541       0.08777014      -0.00034440       0.04511846       0.04399105
C        8.75983398       7.57279264       7.77463835       0.71233642       1.10959498      -0.05003591      -0.06148685       0.04232273       0.06181792      -0.03378249
C       10.06082492       7.26914233       8.43085081      -0.97412983       0.43569304      -0.25295872      -0.07423938      -0.07741929      -0.05422766       0.58128821
O        9.90660098       6.58710947       9.57622401      -1.15128125      -0.42558669       0.23218454       0.05814292       0.10453156      -0.03075421      -0.50917363
O       11.13913500       7.54854845       7.97905850       0.61641227      -1.69976584      -0.91185618       0.06299009       0.05427094       0.01313542      -0.52927273
C        6.35582411       7.46378426       7.77665195      -0.25670663      -0.51948629       0.02606060      -0.03282187       0.12285165       0.04674463      -0.03378356
C        5.09340505       7.18551153       8.50864847      -0.52160264       0.41321985      -0.90389107       0.01402504      -0.07067014      -0.02430410       0.58120365
O        4.02693956       7.74292435       7.91666351      -1.32041836       0.72205267      -0.50547398       0.01221863      -0.05895213       0.09074661      -0.51057077
O        5.02657506       6.54093071       9.52194955       0.43318303      -1.23360680       0.79151251      -0.11846994       0.10378982      -0.00624974      -0.52702987
H        9.64542401       8.36458694       5.97563142       0.17274139      -0.18957286       0.08112288       0.12106368      -0.03953868       0.05330339       0.05842381
H        7.56880721       6.95355239       9.47053761       0.15779781       0.06805984       0.05473122      -0.00336906      -0.06165077      -0.13300181       0.07175200
C        8.72415228       8.10381087       6.48085098       0.85444320       0.93138475      -0.02625374      -0.00411249      -0.12663029       0.00100265       0.00288533
C        7.56776634       7.29108839       8.43741768       1.35306758      -0.11499178       0.64947075      -0.06601567      -0.05043103       0.00325969       0.00732166
C        7.51236895       8.26699200       5.82535952      -0.69732032       0.57196411      -0.97173680      -0.01038526      -0.01462340      -0.03126880      -0.02432161
C        6.33053701       7.92573640       6.46189993       0.15784322       0.45020354       1.23385977      -0.02746001       0.05342019       0.04328133       0.00005391
H       10.77462291       6.38734953       9.96127800      -0.03761756       0.05037161       0.71929163       0.03812642       0.03190397      -0.05060085       0.38236756
H        3.22811160       7.55770463       8.43488372       0.11029045      -0.55434646       0.19608473      -0.00717310      -0.06145675       0.04342665       0.38353692
18
Lattice="15.108652899924854 0.0 0.0 0.0 15.108652899924854 0.0 0.0 0.0 15.108652899924854" Properties=species:S:1:pos:R:3:momenta:R:3:forces:R:3:charge:R:1 energy=-1060.2371446355573 free_energy=-1060.2371446355573 dipole="-0.40186489394700103 0.11364025327470684 -0.24414455645399832" stress="0.0 0.0 0.0 0.0 0.0 0.0 0.0 0.0 0.0" pbc="T T T"
H        5.38767772       8.04648721       5.94069637       0.14695706       0.00436762      -0.11606682       0.01258477       0.10364298       0.00589582       0.05473261
H        7.51013823       8.65057098       4.81368285       0.24400415      -0.01955530      -0.24604541      -0.00497578      -0.02251130      -0.01933245       0.04402113
C        8.74745880       7.56911090       7.77751884       0.71233642       1.10959498      -0.05003591       0.03796014      -0.11557886       0.01134703      -0.03451587
C       10.05191139       7.27220246       8.42504821      -0.97412983       0.43569304      -0.25295872       0.04000201       0.05085272       0.03622897       0.58082556
O        9.91984983       6.61011600       9.58188208      -1.15128125      -0.42558669       0.23218454       0.02214516      -0.01397958      -0.00724273      -0.50813996
O       11.12528734       7.56613480       7.96709204       0.61641227      -1.69976584      -0.91185618       0.00677051      -0.00691086      -0.02644028      -0.53107874
C        6.33930585       7.48725616       7.78012931      -0.25670663      -0.51948629       0.02606060       0.00949409      -0.06150507      -0.00372656      -0.03305344
C        5.07462130       7.19191307       8.50876077      -0.52160264       0.41321985      -0.90389107       0.01854118       0.07438009       0.05038932       0.58068957
O        3.99736898       7.73254325       7.92469219      -1.32041836       0.72205267      -0.50547398      -0.00317494      -0.03860115      -0.03064288      -0.50961506
O        5.00246916       6.56319066       9.53209470       0.43318303      -1.23360680       0.79151251       0.06985026       0.01359680      -0.03044889      -0.52834353
H        9.67666064       8.33048862       6.00228425       0.17274139      -0.18957286       0.08112288      -0.03078442      -0.05543571      -0.02399343       0.05983527
H        7.58135193       6.91053461       9.44865726       0.15779781       0.06805984       0.05473122      -0.14403668      -0.03326293      -0.02154991       0.07175998
C        8.73448251       8.07965128       6.47858838       0.85444320       0.93138475      -0.02625374      -0.03922448       0.06593379       0.05779967       0.00280036
C        7.55340513       7.28155388       8.43018182       1.35306758      -0.11499178       0.64947075      -0.00839053       0.00534460       0.03835692       0.00703344
C        7.52495353       8.26325684       5.82571955      -0.69732032       0.57196411      -0.97173680       0.00950577       0.01873806      -0.00958789      -0.02428190
C        6.33219022       7.95278723       6.46406468       0.15784322       0.45020354       1.23385977      -0.00531930      -0.02057670      -0.00252586       0.00062116
H       10.79835876       6.40324562       9.93867595      -0.03761756       0.05037161       0.71929163       0.02931891       0.05027955      -0.00985592       0.38281565
H        3.21625047       7.52430891       8.46292285       0.11029045      -0.55434646       0.19608473      -0.02026666      -0.01440642      -0.01467096       0.38389375
18
Lattice="15.108652899924854 0.0 0.0 0.0 15.108652899924854 0.0 0.0 0.0 15.108652899924854" Properties=species:S:1:pos:R:3:momenta:R:3:forces:R:3:charge:R:1 energy=-1060.2498770995896 free_energy=-1060.2498770995896 dipole="-0.39949645413044027 0.11102933485141707 -0.2432914075556059" stress="0.0 0.0 0.0 0.0 0.0 0.0 0.0 0.0 0.0" pbc="T T T"
H        5.39726350       8.10380558       5.93285732       0.14695706       0.00436762      -0.11606682      -0.03913205       0.02453767       0.04615236       0.05443945
H        7.53030897       8.64172366       4.81196114       0.24400415      -0.01955530      -0.24604541      -0.01717945       0.00563411       0.01498918       0.04415792
C        8.74269015       7.54319394       7.78437859       0.71233642       1.10959498      -0.05003591      -0.02914935       0.10745271      -0.00620393      -0.03441031
C       10.05630314       7.27726202       8.42466708      -0.97412983       0.43569304      -0.25295872      -0.01411468      -0.06092304      -0.01509176       0.58089391
O        9.94210356       6.62372638       9.58547171      -1.15128125      -0.42558669       0.23218454       0.03128947      -0.02657091       0.04594086      -0.50706330
O       11.12261096       7.57932327       7.95390010       0.61641227      -1.69976584      -0.91185618      -0.04945898       0.00980308      -0.00155915      -0.53199122
C        6.33236527       7.49468613       7.77564690      -0.25670663      -0.51948629       0.02606060      -0.01427850       0.03468967      -0.06000023      -0.03372769
C        5.07111714       7.20936602       8.51268818      -0.52160264       0.41321985      -0.90389107      -0.02606154      -0.08759747      -0.05719707       0.58075441
O        3.97961908       7.71295513       7.92365573      -1.32041836       0.72205267      -0.50547398       0.00015002       0.03060672      -0.03252460      -0.50917616
O        5.01247686       6.58645498       9.54016276       0.43318303      -1.23360680       0.79151251       0.05974735       0.02526375       0.07713397      -0.52927309
H        9.68209174       8.28940293       6.01282795       0.17274139      -0.18957286       0.08112288      -0.03948181       0.02693959      -0.00439830       0.05996545
H        7.53066264       6.86764558       9.43512728       0.15779781       0.06805984       0.05473122       0.00564768      -0.01190215       0.07678367       0.07191008
C        8.73293572       8.07365095       6.49309727       0.85444320       0.93138475      -0.02625374       0.03052298      -0.10885708      -0.05712169       0.00242969
C        7.54092393       7.26789535       8.42987134       1.35306758      -0.11499178       0.64947075       0.00435324      -0.05663444      -0.05527535       0.00773522
C        7.53198152       8.26535143       5.82871786      -0.69732032       0.57196411      -0.97173680       0.00419278      -0.00993948       0.01598776      -0.02441563
C        6.33280814       7.96865248       6.46223056       0.15784322       0.45020354       1.23385977       0.01426493       0.08288976      -0.00535091       0.00087065
H       10.83035502       6.43355513       9.92508735      -0.03761756       0.05037161       0.71929163       0.05179584       0.01985558       0.05970617       0.38292346
H        3.20512442       7.49670155       8.47034299       0.11029045      -0.55434646       0.19608473       0.02689205      -0.00524809      -0.04197098       0.38397717
18
Lattice="15.108652899924854 0.0 0.0 0.0 15.108652899924854 0.0 0.0 0.0 15.108652899924854" Properties=species:S:1:pos:R:3:momenta:R:3:forces:R:3:charge:R:1 energy=-1060.2565245017208 free_energy=-1060.2565245017208 dipole="-0.4045789018179111 0.10010052383511653 -0.24798000871543924" stress="0.0 0.0 0.0 0.0 0.0 0.0 0.0 0.0 0.0" pbc="T T T"
H        5.39380195       8.14292584       5.94168402       0.14695706       0.00436762      -0.11606682      -0.01858583       0.04068305       0.01953057       0.05448274
H        7.53651383       8.64027178       4.81203868       0.24400415      -0.01955530      -0.24604541       0.00279095       0.01917057       0.00490367       0.04404562
C        8.73694022       7.53750591       7.79013112       0.71233642       1.10959498      -0.05003591      -0.00002097      -0.07225652       0.00018867      -0.03419759
C       10.05401456       7.27124213       8.42741639      -0.97412983       0.43569304      -0.25295872      -0.02029039       0.00675492       0.01264100       0.58081380
O        9.96105680       6.62341963       9.59448842      -1.15128125      -0.42558669       0.23218454       0.00348801       0.00395615      -0.01370954      -0.50677567
O       11.11175685       7.58551912       7.94550220       0.61641227      -1.69976584      -0.91185618       0.00687918      -0.01500481       0.00750860      -0.53226410
C        6.32756334       7.49641534       7.76703815      -0.25670663      -0.51948629       0.02606060       0.02325119      -0.01891060       0.02609796      -0.03433864
C        5.07000845       7.20675964       8.50764647      -0.52160264       0.41321985      -0.90389107       0.04268526       0.04322404       0.00935474       0.58042064
O        3.97534107       7.70141717       7.91618529      -1.32041836       0.72205267      -0.50547398       0.02755001      -0.06416416       0.00241761      -0.50897472
O        5.02849365       6.60732564       9.55080865       0.43318303      -1.23360680       0.79151251      -0.05261510       0.02349934      -0.03376503      -0.52945513
H        9.67937044       8.27382248       6.01302536       0.17274139      -0.18957286       0.08112288       0.02248916      -0.00756149      -0.01469894       0.06031694
H        7.50801526       6.84828485       9.43253371       0.15779781       0.06805984       0.05473122       0.04780937       0.01937228      -0.04500380       0.07204920
C        8.73256558       8.05340352       6.49224858       0.85444320       0.93138475      -0.02625374      -0.01384447       0.00725171       0.00374758       0.00282355
C        7.53209326       7.25215242       8.42498868       1.35306758      -0.11499178       0.64947075       0.00488557       0.00134982       0.02506306       0.00775036
C        7.53520235       8.26473860       5.82875379      -0.69732032       0.57196411      -0.97173680      -0.02695064       0.00941418      -0.01218859      -0.02449497
C        6.33158505       7.99135752       6.46260940       0.15784322       0.45020354       1.23385977      -0.02140157      -0.02491037       0.00730436       0.00093908
H       10.85619169       6.45603477       9.93222242      -0.03761756       0.05037161       0.71929163      -0.01035528       0.02621145       0.01417143       0.38285537
H        3.20322744       7.48275614       8.46337077       0.11029045      -0.55434646       0.19608473      -0.01776444       0.00192046      -0.01356337       0.38400353
18
Lattice="15.108652899924854 0.0 0.0 0.0 15.108652899924854 0.0 0.0 0.0 15.108652899924854" Properties=species:S:1:pos:R:3:momenta:R:3:forces:R:3:charge:R:1 energy=-1060.260399353784 free_energy=-1060.260399353784 dipole="-0.3944145164992586 0.11564156478721312 -0.245353234026912" stress="0.0 0.0 0.0 0.0 0.0 0.0 0.0 0.0 0.0" pbc="T T T"
H        5.38481944       8.18947896       5.96131008       0.14695706       0.00436762      -0.11606682       0.03102068      -0.01594100       0.01462568       0.05518026
H        7.54100898       8.65024429       4.81592342       0.24400415      -0.01955530      -0.24604541      -0.02808585       0.02178924       0.00750917       0.04414557
C        8.73546265       7.51219287       7.78357083       0.71233642       1.10959498      -0.05003591       0.02072929       0.02411115      -0.02283279      -0.03404149
C       10.05151346       7.26234963       8.42825431      -0.97412983       0.43569304      -0.25295872       0.04625877      -0.01020587      -0.03383233       0.58078111
O        9.97201046       6.62519506       9.60173544      -1.15128125      -0.42558669       0.23218454      -0.03925430       0.01521624      -0.00299764      -0.50639013
O       11.10509136       7.58641594       7.94321977       0.61641227      -1.69976584      -0.91185618       0.03950530      -0.00048108      -0.00019883      -0.53289149
C        6.32813405       7.49697660       7.76703870      -0.25670663      -0.51948629       0.02606060      -0.02063614      -0.00192383       0.00958227      -0.03443569
C        5.07238251       7.21290799       8.50831682      -0.52160264       0.41321985      -0.90389107      -0.06070623      -0.03434327       0.00147573       0.58053134
O        3.97491348       7.67537258       7.89866936      -1.32041836       0.72205267      -0.50547398      -0.03830427       0.03564601      -0.04586280      -0.50937723
O        5.02414161       6.63004645       9.56006623       0.43318303      -1.23360680       0.79151251       0.02432072       0.01191243       0.04599502      -0.53013529
H        9.67841255       8.25616449       6.01146461       0.17274139      -0.18957286       0.08112288      -0.01584959      -0.01423805      -0.01945387       0.06039530
H        7.51505161       6.83683309       9.42510455       0.15779781       0.06805984       0.05473122      -0.00349708      -0.02396843       0.05366556       0.07200185
C        8.72908849       8.03730972       6.48881923       0.85444320       0.93138475      -0.02625374       0.01608087      -0.01389492      -0.01502816       0.00291835
C        7.53129849       7.24018126       8.42053092       1.35306758      -0.11499178       0.64947075       0.01107407      -0.02555732      -0.01227834       0.00754382
C        7.53141241       8.26499434       5.82895665      -0.69732032       0.57196411      -0.97173680       0.02260523       0.00091344       0.01889534      -0.02448208
C        6.32642322       8.00161562       6.46562998       0.15784322       0.45020354       1.23385977       0.02319885       0.02905629       0.02978386       0.00124484
H       10.87104327       6.48647519       9.94396212      -0.03761756       0.05037161       0.71929163      -0.03749011       0.01960758      -0.00729052       0.38308715
H        3.20153374       7.47059841       8.45011906       0.11029045      -0.55434646       0.19608473       0.00902979      -0.01769861      -0.02175735       0.38392382
18
Lattice="15.108652899924854 0.0 0.0 0.0 15.108652899924854 0.0 0.0 0.0 15.108652899924854" Properties=species:S:1:pos:R:3:momenta:R:3:forces:R:3:charge:R:1 energy=-1060.2644178333558 free_energy=-1060.2644178333558 dipole="-0.3978784134437558 0.11660934277704481 -0.2479008171424326" stress="0.0 0.0 0.0 0.0 0.0 0.0 0.0 0.0 0.0" pbc="T T T"
H        5.38619435       8.22363206       5.98708966       0.14695706       0.00436762      -0.11606682       0.01370923      -0.01405502       0.00233342       0.05537090
H        7.53047714       8.67021139       4.82625328       0.24400415      -0.01955530      -0.24604541      -0.01515381       0.00718428       0.02214865       0.04408311
C        8.74031955       7.49114486       7.77190558       0.71233642       1.10959498      -0.05003591      -0.00870826       0.01356364       0.00851577      -0.03450603
C       10.05884564       7.25305308       8.41842032      -0.97412983       0.43569304      -0.25295872      -0.03585525       0.01435603       0.01230926       0.58056309
O        9.96767534       6.63375562       9.60066337      -1.15128125      -0.42558669       0.23218454       0.01392416       0.01138813      -0.00139411      -0.50665908
O       11.11593880       7.58093104       7.94375206       0.61641227      -1.69976584      -0.91185618      -0.02773942      -0.01915113      -0.02322022      -0.53232028
C        6.32988188       7.49177763       7.77501675      -0.25670663      -0.51948629       0.02606060       0.02818075      -0.00240859      -0.00357853      -0.03457249
C        5.06638444       7.21333811       8.50871765      -0.52160264       0.41321985      -0.90389107       0.04659738       0.02264863       0.01351284       0.58020610
O        3.97174087       7.65358627       7.87421556      -1.32041836       0.72205267      -0.50547398       0.03769606      -0.02678101       0.04033892      -0.50957058
O        5.01584021       6.65859265       9.57569634       0.43318303      -1.23360680       0.79151251      -0.03473042       0.01989115      -0.00819266      -0.52940069
H        9.67605645       8.23764239       5.99601751       0.17274139      -0.18957286       0.08112288       0.00840878      -0.02299409      -0.01768237       0.06011931
H        7.52816436       6.82478611       9.42915814       0.15779781       0.06805984       0.05473122      -0.01039321      -0.01638149      -0.05222935       0.07198484
C        8.73007389       8.02013677       6.47929550       0.85444320       0.93138475      -0.02625374       0.00039054       0.01127595      -0.00211561       0.00289387
C        7.53749047       7.22133122       8.41877639       1.35306758      -0.11499178       0.64947075       0.00722876       0.02347038       0.00138424       0.00831078
C        7.52949864       8.26950502       5.83388743      -0.69732032       0.57196411      -0.97173680      -0.00492487       0.01653729       0.00371162      -0.02447698
C        6.32847168       8.01547962       6.48099831       0.15784322       0.45020354       1.23385977       0.00795600      -0.00817669      -0.00252074       0.00093277
H       10.86374262       6.52032679       9.95731632      -0.03761756       0.05037161       0.71929163      -0.00408253      -0.01563718       0.02837106       0.38299348
H        3.19694546       7.45612186       8.42551194       0.11029045      -0.55434646       0.19608473      -0.02250390      -0.01473028      -0.02169220       0.38404786
18
Lattice="15.108652899924854 0.0 0.0 0.0 15.108652899924854 0.0 0.0 0.0 15.108652899924854" Properties=species:S:1:pos:R:3:momenta:R:3:forces:R:3:charge:R:1 energy=-1060.2662579217276 free_energy=-1060.2662579217276 dipole="-0.39613791069643367 0.11162342923158056 -0.2496859537814408" stress="0.0 0.0 0.0 0.0 0.0 0.0 0.0 0.0 0.0" pbc="T T T"
H        5.39009969       8.24592219       6.00093027       0.14695706       0.00436762      -0.11606682      -0.02335110      -0.00914889      -0.01610441       0.05541720
H        7.52368037       8.68468757       4.83547672       0.24400415      -0.01955530      -0.24604541       0.00710568       0.01151574      -0.01728162       0.04411791
C        8.74131934       7.48325998       7.76727366       0.71233642       1.10959498      -0.05003591      -0.00230760      -0.00354142       0.00795218      -0.03438810
C       10.05797480       7.24984026       8.41562732      -0.97412983       0.43569304      -0.25295872       0.01412929      -0.00443015       0.00067686       0.58077295
O        9.96962691       6.64373887       9.60480297      -1.15128125      -0.42558669       0.23218454      -0.00866431       0.01389527       0.01269865      -0.50680168
O       11.11267473       7.57469940       7.93383679       0.61641227      -1.69976584      -0.91185618       0.01552631      -0.02039057      -0.00271985      -0.53254493
C        6.33231978       7.49185191       7.77866156      -0.25670663      -0.51948629       0.02606060      -0.02213628       0.00783845       0.01009627      -0.03457556
C        5.06797106       7.21830211       8.51405691      -0.52160264       0.41321985      -0.90389107      -0.01419464      -0.00132094       0.00183916       0.58045523
O        3.97402724       7.63620211       7.86431112      -1.32041836       0.72205267      -0.50547398      -0.00452793       0.00934492      -0.02394270      -0.50983133
O        5.00944183       6.68282101       9.59011589       0.43318303      -1.23360680       0.79151251       0.03949939       0.00502833       0.01216046      -0.52924150
H        9.67765191       8.21458837       5.98428184       0.17274139      -0.18957286       0.08112288       0.00513712       0.00046617      -0.00445653       0.06036789
H        7.52869457       6.80481190       9.41910611       0.15779781       0.06805984       0.05473122       0.01257667      -0.00994841       0.01089692       0.07184703
C        8.73194759       8.01165349       6.47440225       0.85444320       0.93138475      -0.02625374      -0.00194023       0.01570011       0.01111614       0.00325304
C        7.54024843       7.21465266       8.41571560       1.35306758      -0.11499178       0.64947075      -0.01384257      -0.00077165       0.01174309       0.00794758
C        7.53001809       8.27598406       5.83871483      -0.69732032       0.57196411      -0.97173680      -0.00648552      -0.00130063      -0.00698589      -0.02458429
C        6.33109263       8.02520329       6.48931396       0.15784322       0.45020354       1.23385977      -0.01431573       0.00892277       0.00469238       0.00090798
H       10.86316106       6.53913482       9.97056532      -0.03761756       0.05037161       0.71929163      -0.00340990      -0.00871701      -0.00393144       0.38297351
H        3.19179173       7.43799850       8.40549898       0.11029045      -0.55434646       0.19608473       0.02120136      -0.01314208      -0.00844966       0.38390707
18
Lattice="15.108652899924854 0.0 0.0 0.0 15.108652899924854 0.0 0.0 0.0 15.108652899924854" Properties=species:S:1:pos:R:3:momenta:R:3:forces:R:3:charge:R:1 energy=-1060.267043573821 free_energy=-1060.267043573821 dipole="-0.4010926783906174 0.10522460137019575 -0.2524735160809014" stress="0.0 0.0 0.0 0.0 0.0 0.0 0.0 0.0 0.0" pbc="T T T"
H        5.38583880       8.23995634       5.99916426       0.14695706       0.00436762      -0.11606682       0.01288371      -0.00088530       0.01077165       0.05550419
H        7.52134742       8.69082081       4.83599701       0.24400415      -0.01955530      -0.24604541       0.00405374      -0.01074721       0.00806367       0.04403576
C        8.74133543       7.48572531       7.76766008       0.71233642       1.10959498      -0.05003591       0.01082469       0.01347148      -0.00649750      -0.03456970
C       10.05891663       7.24868702       8.41520985      -0.97412983       0.43569304      -0.25295872      -0.00260510      -0.01020283       0.00035402       0.58078382
O        9.96587657       6.65129109       9.60867336      -1.15128125      -0.42558669       0.23218454      -0.00694867       0.00496036       0.00952078      -0.50695442
O       11.11594438       7.56205918       7.93092530       0.61641227      -1.69976584      -0.91185618      -0.00613708      -0.02079756      -0.00527976      -0.53223819
C        6.33242286       7.49485205       7.78079877      -0.25670663      -0.51948629       0.02606060       0.01921903       0.00963506      -0.01098206      -0.03466336
C        5.07009748       7.22038249       8.51614045      -0.52160264       0.41321985      -0.90389107       0.00579382       0.00246522      -0.00431962       0.58050801
O        3.97780035       7.63366641       7.86074439      -1.32041836       0.72205267      -0.50547398      -0.00817058      -0.01639149       0.00632467      -0.50988799
O        5.01492634       6.68926799       9.59456330       0.43318303      -1.23360680       0.79151251      -0.01049121       0.01071097      -0.00351282      -0.52922524
H        9.67659182       8.21199400       5.98031153       0.17274139      -0.18957286       0.08112288      -0.02445397       0.01350603       0.02044455       0.06018268