18
Lattice="15.108652899924854 0.0 0.0 0.0 15.108652899924854 0.0 0.0 0.0 15.108652899924854" Properties=species:S:1:pos:R:3:momenta:R:3:forces:R:3:charge:R:1 energy=-1060.1411956030693 free_energy=-1060.1411956030693 dipole="-0.37743824560000994 0.021130062227546206 -0.29030734840848677" stress="0.0 0.0 0.0 0.0 0.0 0.0 0.0 0.0 0.0" pbc="T T T"
H        5.41539516       8.26879610       6.06305811      -0.06824998       0.13614315      -0.26895548       0.04864274      -0.10576116      -0.25416065       0.05344653
H        7.62837661       8.55762000       4.78172181      -0.11449319       0.02028804      -0.07689996      -0.30810641      -0.01242071       0.22553760       0.04487791
C        8.76037346       7.44319828       7.77626689      -0.34799635       0.46141372      -0.22256165       0.02421234      -0.11722046       0.02543574      -0.03638697
C       10.09601691       7.30257842       8.42791156      -0.51267710       0.39843391      -0.37648293      -0.39269447      -0.27497093       0.04154665       0.58293170
O       10.08625453       6.56838937       9.54628462       0.82933907       0.15793762       0.02978701      -0.13224738      -0.02378250      -0.00484397      -0.50747930
O       11.09515573       7.79057120       7.97907430       1.29030686      -0.30455199       0.09270720       0.40365369       0.11156992      -0.06354920      -0.52984853
C        6.35088200       7.41433174       7.76910982       0.24281923      -0.29679484       0.10720295       0.07057316       0.11094102       0.10904181      -0.03628107
C        5.06434164       7.19366627       8.52455155       0.22161061      -0.35995939      -0.01510019       0.35498966       0.28877417      -0.56892828       0.58513152
O        4.02766851       7.81287962       7.94696629      -0.05953128       0.03221357      -0.14993523       0.01884479       0.00759672      -0.40942084      -0.51228449
O        4.96743109       6.55683415       9.53179440      -1.63721680      -0.06481050       0.38156937       0.01318961      -0.28618013       0.32942816      -0.52175771
H        9.70766975       8.18420669       6.04116532      -0.14626847      -0.09924582       0.18046209       0.13099871       0.02547256      -0.25030153       0.06003021
H        7.60561027       6.62441380       9.36286017      -0.17454874      -0.06778385       0.03727798      -0.25242428       0.12870041       0.11130498       0.06813933
C        8.75045171       7.94460965       6.47806188      -0.04040253      -0.06666946       0.06753920       0.16292393       0.17378229       0.02046369       0.00011574
C        7.56168709       7.11306022       8.39624670       0.21425585      -0.24150879       0.37709090       0.04117160      -0.16880270       0.12721187       0.00678616
C        7.56734684       8.18339666       5.80314444       0.51589686       0.21814226      -0.26736318      -0.10353820      -0.05003909       0.20565540      -0.02326140
C        6.36885510       7.96727216       6.48091385      -0.16402929       0.26151789       0.21793582      -0.14896802       0.12662720       0.10331094      -0.00062887
H       10.98899062       6.47491664       9.89105673      -0.02505253       0.01586633      -0.14898645       0.00028039       0.09177670      -0.03235759       0.38267697
H        3.17785773       7.56283032       8.33725188      -0.02376222      -0.20063186       0.03471254       0.06849815      -0.02606331       0.28462520       0.38379226
18
Lattice="15.108652899924854 0.0 0.0 0.0 15.108652899924854 0.0 0.0 0.0 15.108652899924854" Properties=species:S:1:pos:R:3:momenta:R:3:forces:R:3:charge:R:1 energy=-1060.2232615063137 free_energy=-1060.2232615063137 dipole="-0.35813985810682003 0.06901211876611667 -0.27553595354932703" stress="0.0 0.0 0.0 0.0 0.0 0.0 0.0 0.0 0.0" pbc="T T T"
H        5.42771185       8.24261288       6.01924147      -0.06824998       0.13614315      -0.26895548       0.01000175      -0.06023441      -0.00895141       0.05583757
H        7.56114452       8.56081460       4.81867303      -0.11449319       0.02028804      -0.07689996       0.00627011       0.10864786      -0.04824108       0.04378719
C        8.76952832       7.42050310       7.77266774      -0.34799635       0.46141372      -0.22256165       0.02912881       0.14732215      -0.05214682      -0.03434842
C       10.09479259       7.28402727       8.42633520      -0.51267710       0.39843391      -0.37648293      -0.03894209      -0.19173564      -0.03960007       0.58117454
O       10.07085652       6.55601769       9.54535600       0.82933907       0.15793762       0.02978701       0.01558154      -0.01743354       0.05744602      -0.50598312
O       11.10662578       7.77128939       7.99254239       1.29030686      -0.30455199       0.09270720       0.05899995      -0.00907335       0.01901251      -0.53318454
C        6.36481672       7.43965130       7.78145141       0.24281923      -0.29679484       0.10720295      -0.03084623      -0.04967562      -0.04586720      -0.03376772
C        5.08394578       7.20043716       8.49653209       0.22161061      -0.35995939      -0.01510019      -0.05160434      -0.03643124       0.05759363       0.58070524
O        4.03494900       7.78277889       7.89768512      -0.05953128       0.03221357      -0.14993523      -0.00080414      -0.05915948      -0.03947748      -0.51084437
O        4.97414723       6.55998073       9.50885657      -1.63721680      -0.06481050       0.38156937       0.02772472       0.00025639       0.01547221      -0.52832946
H        9.70942674       8.18704121       6.00237709      -0.14626847      -0.09924582       0.18046209      -0.01788641      -0.01584386       0.02514686       0.06086546
H        7.55823329       6.64914490       9.38505834      -0.17454874      -0.06778385       0.03727798      -0.00133488       0.05006711       0.02509155       0.07041363
C        8.76458847       7.96077497       6.48553608      -0.04040253      -0.06666946       0.06753920      -0.06898332      -0.02600211      -0.07122641       0.00261672
C        7.56864001       7.10747043       8.40251865       0.21425585      -0.24150879       0.37709090      -0.01811645       0.09711253       0.03999286       0.00832615
C        7.56453854       8.19517134       5.83682435       0.51589686       0.21814226      -0.26736318       0.02511995       0.05246801      -0.08475955      -0.02441202
C        6.36555353       7.98305755       6.49653255      -0.16402929       0.26151789       0.21793582      -0.00631811       0.00891882       0.01032079       0.00036848
H       10.97806901       6.49648757       9.88490917      -0.02505253       0.01586633      -0.14898645       0.01704773      -0.00705223       0.09018223       0.38322427
H        3.22279685       7.56631032       8.38434307      -0.02376222      -0.20063186       0.03471254       0.04496140       0.00784862       0.05001136       0.38355041
18
Lattice="15.108652899924854 0.0 0.0 0.0 15.108652899924854 0.0 0.0 0.0 15.108652899924854" Properties=species:S:1:pos:R:3:momenta:R:3:forces:R:3:charge:R:1 energy=-1060.2376117503366 free_energy=-1060.2376117503366 dipole="-0.3605632443351206 0.09243265344322192 -0.2613036214451248" stress="0.0 0.0 0.0 0.0 0.0 0.0 0.0 0.0 0.0" pbc="T T T"
H        5.42725418       8.21726643       6.00512843      -0.06824998       0.13614315      -0.26895548      -0.06830420      -0.00981816      -0.00829048       0.05576985
H        7.54862588       8.60013282       4.81102191      -0.11449319       0.02028804      -0.07689996       0.03745113       0.01375103       0.09126614       0.04444248
C        8.76963745       7.43383602       7.76917269      -0.34799635       0.46141372      -0.22256165       0.03077582      -0.04705904       0.00663548      -0.03375631
C       10.09636594       7.25752533       8.42343190      -0.51267710       0.39843391      -0.37648293       0.04317523       0.10966474       0.01472081       0.58045572
O       10.06963569       6.54130989       9.55212636       0.82933907       0.15793762       0.02978701      -0.06540448      -0.01699642      -0.01324699      -0.50584642
O       11.11558799       7.74160451       7.99972567       1.29030686      -0.30455199       0.09270720      -0.02129290      -0.07956773      -0.05245004      -0.53321456
C        6.36584679       7.43773953       7.77486853       0.24281923      -0.29679484       0.10720295      -0.03485512       0.02469906      -0.01490347      -0.03391217
C        5.08787999       7.18757350       8.49211167       0.22161061      -0.35995939      -0.01510019      -0.03907899       0.02008219      -0.01510957       0.58032927
O        4.03456073       7.75175219       7.88393700      -0.05953128       0.03221357      -0.14993523      -0.02501749      -0.03785291       0.05140448      -0.51057857
O        4.98053454       6.56317684       9.51448491      -1.63721680      -0.06481050       0.38156937       0.06580502       0.00731480       0.01609882      -0.52831141
H        9.70768493       8.18148037       5.99493071      -0.14626847      -0.09924582       0.18046209      -0.03330999      -0.02221480       0.00135907       0.06013488
H        7.55179109       6.68041223       9.39220970      -0.17454874      -0.06778385       0.03727798       0.03942064       0.05796992       0.05694199       0.07062335
C        8.75854721       7.96304476       6.47473905      -0.04040253      -0.06666946       0.06753920       0.05602963       0.05514984       0.01060007       0.00291760
C        7.56906560       7.13646923       8.40961502       0.21425585      -0.24150879       0.37709090       0.04352031      -0.02423182      -0.08648567       0.00752712
C        7.55987530       8.21466224       5.82607053       0.51589686       0.21814226      -0.26736318       0.03382637      -0.00087331       0.04837166      -0.02402465
C        6.36530216       7.98484056       6.49139771      -0.16402929       0.26151789       0.21793582       0.02389541      -0.03119368      -0.08092195       0.00051177
H       10.97280721       6.50072629       9.91126290      -0.02505253       0.01586633      -0.14898645      -0.07228837      -0.00633609      -0.00947992       0.38332934
H        3.23936210       7.57001857       8.41120562      -0.02376222      -0.20063186       0.03471254      -0.01434799      -0.01248761      -0.01651044       0.38360270
18
Lattice="15.108652899924854 0.0 0.0 0.0 15.108652899924854 0.0 0.0 0.0 15.108652899924854" Properties=species:S:1:pos:R:3:momenta:R:3:forces:R:3:charge:R:1 energy=-1060.2480436310636 free_energy=-1060.2480436310636 dipole="-0.37912765413013993 0.13052532127556188 -0.2379418388946323" stress="0.0 0.0 0.0 0.0 0.0 0.0 0.0 0.0 0.0" pbc="T T T"
H        5.41327049       8.19138434       5.99103676      -0.06824998       0.13614315      -0.26895548       0.08590709      -0.00610980      -0.02162631       0.05572074
H        7.55921682       8.64236704       4.82888192      -0.11449319       0.02028804      -0.07689996       0.02528329       0.00768328      -0.03682016       0.04400385
C        8.77543865       7.44041107       7.76535658      -0.34799635       0.46141372      -0.22256165      -0.03362174       0.00633323      -0.02482022      -0.03393013
C       10.09816107       7.24973836       8.42165459      -0.51267710       0.39843391      -0.37648293      -0.04808230      -0.06058402      -0.03482226       0.58088043
O       10.04740752       6.53612957       9.55230833       0.82933907       0.15793762       0.02978701      -0.02689883       0.08817060       0.00587589      -0.50631656
O       11.12872789       7.69601838       7.98741250       1.29030686      -0.30455199       0.09270720       0.01984622      -0.01483749       0.00415042      -0.53208851
C        6.36376603       7.43657792       7.76133523       0.24281923      -0.29679484       0.10720295       0.02981263      -0.03245055       0.01051415      -0.03441175
C        5.09120350       7.18021217       8.49000144       0.22161061      -0.35995939      -0.01510019       0.05920993      -0.01325187       0.00280975       0.58065956
O        4.02428829       7.71883843       7.88485079      -0.05953128       0.03221357      -0.14993523       0.01934497       0.01829548       0.01615744      -0.51008619
O        5.01027655       6.57122521       9.52441482      -1.63721680      -0.06481050       0.38156937      -0.00189279       0.03455048       0.00800097      -0.52850616
H        9.70863685       8.17549430       5.98493691      -0.14626847      -0.09924582       0.18046209       0.03582169       0.05925851      -0.01150376       0.06005853
H        7.56239340       6.73411312       9.40351775      -0.17454874      -0.06778385       0.03727798      -0.01912537       0.01807414      -0.05233095       0.07034539
C        8.76328188       7.97592683       6.47464312      -0.04040253      -0.06666946       0.06753920      -0.02103385      -0.03915570      -0.00069149       0.00278627
C        7.57133065       7.15106431       8.40068833       0.21425585      -0.24150879       0.37709090      -0.02587476       0.02730733       0.06669001       0.00764093
C        7.56339692       8.23002843       5.83020438       0.51589686       0.21814226      -0.26736318      -0.03936458       0.00146289      -0.00805056      -0.02424713
C        6.36111155       7.97413409       6.47285455      -0.16402929       0.26151789       0.21793582      -0.00700885       0.00880084       0.08665698       0.00053211
H       10.94106039       6.49674274       9.93228695      -0.02505253       0.01586633      -0.14898645      -0.02953193      -0.04204880      -0.01383457       0.38306395
H        3.23739630       7.56316496       8.43105536      -0.02376222      -0.20063186       0.03471254      -0.02279081      -0.06149855       0.00364466       0.38389468
18
Lattice="15.108652899924854 0.0 0.0 0.0 15.108652899924854 0.0 0.0 0.0 15.108652899924854" Properties=species:S:1:pos:R:3:momenta:R:3:forces:R:3:charge:R:1 energy=-1060.254108388238 free_energy=-1060.254108388238 dipole="-0.3886360453957569 0.11448743548215932 -0.24672546051394592" stress="0.0 0.0 0.0 0.0 0.0 0.0 0.0 0.0 0.0" pbc="T T T"
H        5.42518626       8.17513864       5.97473243      -0.06824998       0.13614315      -0.26895548      -0.04117242       0.02128021       0.00629411       0.05519809
H        7.56966325       8.66757925       4.83346411      -0.11449319       0.02028804      -0.07689996      -0.05377848      -0.02088314      -0.01361255       0.04404923
C        8.77412779       7.44259532       7.75593945      -0.34799635       0.46141372      -0.22256165       0.01976035       0.03371151       0.02891658      -0.03408364
C       10.09231953       7.23945881       8.41251397      -0.51267710       0.39843391      -0.37648293       0.02529254       0.01636695       0.02148461       0.58087416
O       10.01789273       6.55702307       9.55979681       0.82933907       0.15793762       0.02978701      -0.01386709      -0.00750287       0.03929731      -0.50652805
O       11.13522234       7.65468849       7.97590050       1.29030686      -0.30455199       0.09270720      -0.01885032      -0.04731818      -0.02348224      -0.53250566
C        6.36621746       7.43209781       7.75876132       0.24281923      -0.29679484       0.10720295      -0.01614494       0.06529522      -0.00077400      -0.03387059
C        5.09958000       7.17571348       8.49377059       0.22161061      -0.35995939      -0.01510019      -0.02868804       0.05152385       0.05367996       0.58078331
O        4.02340766       7.70239512       7.89359414      -0.05953128       0.03221357      -0.14993523      -0.00453664      -0.01992346      -0.01126899      -0.51015721
O        5.03025177       6.58452697       9.53912186      -1.63721680      -0.06481050       0.38156937      -0.00313136      -0.01834803       0.02207161      -0.52874076
H        9.71105311       8.19017026       5.97976658      -0.14626847      -0.09924582       0.18046209      -0.01858647       0.00562501       0.01487780       0.06000157
H        7.56279819       6.76738221       9.40919389      -0.17454874      -0.06778385       0.03727798       0.00709915      -0.03176463       0.03303189       0.07136480
C        8.76479165       7.97835794       6.46688924      -0.04040253      -0.06666946       0.06753920       0.02444117       0.02881941       0.00295581       0.00272430
C        7.57316454       7.16855861       8.40328770       0.21425585      -0.24150879       0.37709090       0.01137114      -0.03171535      -0.04626441       0.00787178
C        7.56351279       8.24043803       5.82952124       0.51589686       0.21814226      -0.26736318       0.04743019       0.00423743      -0.02937862      -0.02442113
C        6.36466996       7.97234810       6.47300787      -0.16402929       0.26151789       0.21793582       0.01861940      -0.00428445      -0.07756741       0.00075376
H       10.90918516       6.48008396       9.93793918      -0.02505253       0.01586633      -0.14898645      -0.00517269      -0.00626246      -0.00398999       0.38296554
H        3.23732058       7.53501523       8.44023945      -0.02376222      -0.20063186       0.03471254       0.04991451      -0.03885702      -0.01627150       0.38372048
18
Lattice="15.108652899924854 0.0 0.0 0.0 15.108652899924854 0.0 0.0 0.0 15.108652899924854" Properties=species:S:1:pos:R:3:momenta:R:3:forces:R:3:charge:R:1 energy=-1060.2583773436015 free_energy=-1060.2583773436015 dipole="-0.39296281071176753 0.11194800750876711 -0.24814249675003533" stress="0.0 0.0 0.0 0.0 0.0 0.0 0.0 0.0 0.0" pbc="T T T"
H        5.42685867       8.17257107       5.96541611      -0.06824998       0.13614315      -0.26895548      -0.00018181       0.00813363       0.01652135       0.05494900
H        7.56212166       8.67505743       4.82646756      -0.11449319       0.02028804      -0.07689996       0.01075014      -0.05200288       0.00918786       0.04417454
C        8.77478899       7.45444608       7.75552119      -0.34799635       0.46141372      -0.22256165       0.00359919      -0.00662851      -0.02100949      -0.03424919
C       10.08800804       7.23308859       8.41316741      -0.51267710       0.39843391      -0.37648293       0.00920965       0.01298339       0.00259911       0.58073480
O        9.99615315       6.57563930       9.57460059       0.82933907       0.15793762       0.02978701       0.02213082      -0.00351666      -0.00808419      -0.50688815
O       11.13952219       7.60901764       7.96250266       1.29030686      -0.30455199       0.09270720       0.01231392      -0.05235461       0.00949984      -0.53238871
C        6.36768447       7.44680757       7.75844286       0.24281923      -0.29679484       0.10720295       0.00707605      -0.01688548       0.00164834      -0.03442381
C        5.10687066       7.18562835       8.50523946       0.22161061      -0.35995939      -0.01510019       0.00177770      -0.03374213      -0.06573929       0.58054434
O        4.02500513       7.68740514       7.89692154      -0.05953128       0.03221357      -0.14993523      -0.01542585       0.00205363      -0.00185702      -0.50955665
O        5.04268061       6.59532110       9.55211293      -1.63721680      -0.06481050       0.38156937       0.03784182       0.05149179      -0.02533705      -0.52897003
H        9.71464279       8.20633859       5.98016475      -0.14626847      -0.09924582       0.18046209       0.00057694       0.00169681       0.02067256       0.06012307
H        7.56415141       6.77956346       9.41074185      -0.17454874      -0.06778385       0.03727798       0.00096201      -0.01911433      -0.04145120       0.07179298
C        8.76888347       7.98951691       6.46510572      -0.04040253      -0.06666946       0.06753920      -0.02283373       0.03232840      -0.00182333       0.00308811
C        7.57396826       7.17465101       8.40022064       0.21425585      -0.24150879       0.37709090       0.01474657       0.06148030       0.01132766       0.00766129
C        7.56823185       8.24481947       5.82207950       0.51589686       0.21814226      -0.26736318      -0.04268351      -0.00906291       0.02351841      -0.02441472
C        6.36816953       7.97131068       6.46364942      -0.16402929       0.26151789       0.21793582      -0.02165546       0.03486367       0.04962650       0.00101869
H       10.88765446       6.46418373       9.94214014      -0.02505253       0.01586633      -0.14898645       0.01203088       0.00617547       0.02145216       0.38292800
H        3.24496942       7.49820519       8.44294597      -0.02376222      -0.20063186       0.03471254      -0.03023532      -0.01789957      -0.00075220       0.38387643
18
Lattice="15.108652899924854 0.0 0.0 0.0 15.108652899924854 0.0 0.0 0.0 15.108652899924854" Properties=species:S:1:pos:R:3:momenta:R:3:forces:R:3:charge:R:1 energy=-1060.2625127499066 free_energy=-1060.2625127499066 dipole="-0.40463431122264515 0.10571954974462959 -0.25067218021427196" stress="0.0 0.0 0.0 0.0 0.0 0.0 0.0 0.0 0.0" pbc="T T T"
H        5.42340192       8.17283880       5.96221867      -0.06824998       0.13614315      -0.26895548      -0.00776391       0.01260616       0.00555975       0.05507637
H        7.55495544       8.66599020       4.81949532      -0.11449319       0.02028804      -0.07689996       0.03107834      -0.01138793      -0.02243739       0.04406791
C        8.77865525       7.47308233       7.75479963      -0.34799635       0.46141372      -0.22256165      -0.00423385       0.01047180       0.02639777      -0.03431039
C       10.08792913       7.22281194       8.41355582      -0.51267710       0.39843391      -0.37648293       0.00400828      -0.02738903      -0.01644214       0.58084116
O        9.97875295       6.59432339       9.59029913       0.82933907       0.15793762       0.02978701      -0.00056439       0.00745818      -0.00965640      -0.50717891
O       11.15175663       7.53997654       7.94819020       1.29030686      -0.30455199       0.09270720       0.02117065      -0.00051501      -0.02108661      -0.53181638
C        6.36965811       7.46183152       7.75637597       0.24281923      -0.29679484       0.10720295       0.00060254       0.01177541       0.00518684      -0.03437902
C        5.11392197       7.19168373       8.50267589       0.22161061      -0.35995939      -0.01510019       0.00283675       0.00863727       0.02483488       0.58040333
O        4.01867751       7.66506033       7.89591816      -0.05953128       0.03221357      -0.14993523      -0.00590057      -0.04404773      -0.01755879      -0.50933634
O        5.06870979       6.62033327       9.56088955      -1.63721680      -0.06481050       0.38156937      -0.02471610      -0.01001839       0.01834777      -0.52989360
H        9.71650907       8.22491195       5.98560516      -0.14626847      -0.09924582       0.18046209      -0.00469230       0.01585039      -0.03438251       0.05998801
H        7.56765934       6.78720548       9.40077066      -0.17454874      -0.06778385       0.03727798      -0.00620375      -0.00585354       0.01897684       0.07240664
C        8.76829411       8.01029990       6.46548841      -0.04040253      -0.06666946       0.06753920       0.01062966      -0.02497022       0.01281427       0.00303437
C        7.57744488       7.19760024       8.39784868       0.21425585      -0.24150879       0.37709090      -0.01680262      -0.02443139       0.01631394       0.00772739
C        7.56514470       8.25171334       5.82058357       0.51589686       0.21814226      -0.26736318       0.01910564       0.02985490       0.00744463      -0.02449051
C        6.36532018       7.98151217       6.46225739      -0.16402929       0.26151789       0.21793582       0.00110458       0.02069648      -0.00101497       0.00093331
H       10.86709586       6.45056359       9.95527653      -0.02505253       0.01586633      -0.14898645      -0.00213908       0.02012437      -0.00244886       0.38289312
H        3.24647794       7.45183258       8.44519157      -0.02376222      -0.20063186       0.03471254      -0.01751988       0.01113826      -0.01084902       0.38403354
18
Lattice="15.108652899924854 0.0 0.0 0.0 15.108652899924854 0.0 0.0 0.0 15.108652899924854" Properties=species:S:1:pos:R:3:momenta:R:3:forces:R:3:charge:R:1 energy=-1060.2642764833638 free_energy=-1060.2642764833638 dipole="-0.4085368723477989 0.11230050228433008 -0.24795537766581519" stress="0.0 0.0 0.0 0.0 0.0 0.0 0.0 0.0 0.0" pbc="T T T"
H        5.42201206       8.18084419       5.96581983      -0.06824998       0.13614315      -0.26895548       0.01567750       0.01987033       0.00996303       0.05513864
H        7.56370662       8.65408563       4.81245535      -0.11449319       0.02028804      -0.07689996      -0.00029191       0.01494382       0.03203672       0.04404092
C        8.77950303       7.48002735       7.75871695      -0.34799635       0.46141372      -0.22256165       0.00993233      -0.02192964      -0.02378048      -0.03428788
C       10.09077498       7.21562537       8.40909669      -0.51267710       0.39843391      -0.37648293       0.02063424       0.02371559      -0.00330863       0.58071224
O        9.97611388       6.60225845       9.59290411       0.82933907       0.15793762       0.02978701       0.01380867      -0.00280796       0.00475527      -0.50707939
O       11.15802532       7.51325699       7.93678317       1.29030686      -0.30455199       0.09270720      -0.05946035      -0.02168469      -0.00647708      -0.53191345
C        6.36985396       7.47148044       7.76003195       0.24281923      -0.29679484       0.10720295      -0.00848453       0.00701875       0.01307509      -0.03450603
C        5.11399623       7.19352613       8.50601074       0.22161061      -0.35995939      -0.01510019      -0.02451543      -0.01340732       0.00303558       0.58039119
O        4.01444518       7.64479561       7.88932854      -0.05953128       0.03221357      -0.14993523       0.00000607      -0.01157618      -0.01189815      -0.50949991
O        5.07045616       6.62930008       9.56832777      -1.63721680      -0.06481050       0.38156937      -0.00242026       0.01477993       0.00156459      -0.52964496
H        9.71370723       8.23437556       5.98051512      -0.14626847      -0.09924582       0.18046209      -0.01290135      -0.02540831       0.01768114       0.05976428
H        7.56595105       6.78360240       9.40123994      -0.17454874      -0.06778385       0.03727798      -0.00214207       0.00526792       0.00306491       0.07261981
C        8.76926242       8.01493972       6.46808926      -0.04040253      -0.06666946       0.06753920      -0.00154820       0.02338753      -0.00784165       0.00307147
C        7.57706385       7.20119971       8.40082788       0.21425585      -0.24150879       0.37709090       0.02009200       0.01304074      -0.01312973       0.00790749
C        7.56653885       8.25931864       5.82264842       0.51589686       0.21814226      -0.26736318      -0.00321807      -0.02387012      -0.00304038      -0.02456888
C        6.36551226       7.99336210       6.46560998      -0.16402929       0.26151789       0.21793582       0.01159022      -0.00723879       0.00358389       0.00103770
H       10.86278182       6.45332968       9.95933714      -0.02505253       0.01586633      -0.14898645       0.00800402       0.01107553      -0.00167289       0.38287535
H        3.24065986       7.43824327       8.43969746      -0.02376222      -0.20063186       0.03471254       0.01523713      -0.00517712      -0.01761124       0.38394142
18
Lattice="15.108652899924854 0.0 0.0 0.0 15.108652899924854 0.0 0.0 0.0 15.108652899924854" Properties=species:S:1:pos:R:3:momenta:R:3:forces:R:3:charge:R:1 energy=-1060.2654726880623 free_energy=-1060.2654726880623 dipole="-0.40844189736093284 0.12277314634625858 -0.2419783510450883" stress="0.0 0.0 0.0 0.0 0.0 0.0 0.0 0.0 0.0" pbc="T T T"
H        5.42508326       8.19240278       5.96935128      -0.06824998       0.13614315      -0.26895548      -0.00026393       0.00588573       0.00346765       0.05501847
H        7.56687439       8.65771896       4.81677298      -0.11449319       0.02028804      -0.07689996      -0.01654853       0.02409277      -0.01395113       0.04404643
C        8.78042710       7.48042217       7.75742975      -0.34799635       0.46141372      -0.22256165      -0.02619426       0.01682396       0.02597297      -0.03437223
C       10.08958478       7.20952824       8.40611570      -0.51267710       0.39843391      -0.37648293      -0.02517317      -0.03783716      -0.00508879       0.58094443
O        9.97426873       6.61100417       9.59796923       0.82933907       0.15793762       0.02978701       0.01787515       0.02736381      -0.00595372      -0.50739764
O       11.15552088       7.48375691       7.91946660       1.29030686      -0.30455199       0.09270720       0.04260346       0.00797487       0.00217163      -0.53171513
C        6.36933467       7.47961330       7.76463000       0.24281923      -0.29679484       0.10720295       0.01345876      -0.02229512      -0.00871270      -0.03478336
C        5.11269068       7.19354369       8.50839854       0.22161061      -0.35995939      -0.01510019       0.03678301       0.01593792      -0.01730843       0.58047441
O        4.01218288       7.62186960       7.87812422      -0.05953128       0.03221357      -0.14993523       0.01291728       0.00156057      -0.00417477      -0.50932073
O        5.07131926       6.64258676       9.57772568      -1.63721680      -0.06481050       0.38156937      -0.01082471       0.02215519      -0.01213159      -0.52943450
H        9.71288576       8.23437457       5.97973371      -0.14626847      -0.09924582       0.18046209       0.03618500      -0.00630054      -0.00286485       0.05992581