18
Lattice="15.108652899924854 0.0 0.0 0.0 15.108652899924854 0.0 0.0 0.0 15.108652899924854" Properties=species:S:1:pos:R:3:momenta:R:3:forces:R:3:charge:R:1 energy=-1060.2129932380897 free_energy=-1060.2129932380897 dipole="-0.41918135078816626 0.17794017727558176 -0.2506728376504392" stress="0.0 0.0 0.0 0.0 0.0 0.0 0.0 0.0 0.0" pbc="T T T"
H        5.40548135       8.18979309       5.95822912      -0.05563538      -0.00931296      -0.10764764      -0.02279511      -0.05174444       0.11418676       0.05523053
H        7.54064079       8.74591893       4.89004274      -0.04621059       0.06198902      -0.10182309       0.00493285      -0.06707380      -0.23678047       0.04391927
C        8.76418625       7.44208071       7.76797203      -0.27021867       0.34804779      -0.25838650      -0.10765891       0.08283401      -0.06867840      -0.03449668
C       10.09422756       7.28112641       8.42287373       0.67774702       0.61835134      -1.16595712      -0.12428085      -0.00459649       0.04192670       0.58008615
O       10.04869088       6.67414281       9.61458619       0.03883771       0.23533260       0.51122118      -0.01219793       0.11840353      -0.00268024      -0.50614698
O       11.13034199       7.68229976       7.95756113      -0.93642404      -1.29082702       0.51394438      -0.06797054       0.00093301      -0.09786129      -0.53272460
C        6.33923409       7.43702403       7.76390762       0.26646956      -0.26049547      -0.07200619       0.09724261       0.03222998       0.03263311      -0.03353112
C        5.06796952       7.17104653       8.49640195       0.52570815      -0.77664769       0.93206450      -0.04618531       0.06439426      -0.07709225       0.58226064
O        3.98130541       7.67484563       7.88459560      -0.17207546      -0.10422771      -0.30195556       0.19855145      -0.02966745      -0.08212499      -0.51289213
O        5.01884948       6.57490703       9.53765517      -0.23101748       0.31534020      -0.82894645      -0.15459757      -0.04058638       0.13804280      -0.52549059
H        9.67438667       8.19710252       5.96907630      -0.06559552       0.06529692      -0.06881053       0.11269149       0.00211007       0.04459894       0.05980323
H        7.56724558       6.84400567       9.44793337       0.05929115       0.11189222      -0.06096823      -0.12798300      -0.08195981      -0.07437615       0.07078545
C        8.74386348       7.97344434       6.47443531       0.13740204      -0.02103750       0.75992090      -0.06205649       0.03810219       0.07147586       0.00272965
C        7.55463567       7.18904577       8.41875305      -0.01673447       0.23401572      -0.11006473       0.02529679       0.08254697      -0.14779756       0.00824313
C        7.54038772       8.25275806       5.84998159      -0.00019557       0.07150051       0.13122073       0.01327142       0.03687836       0.01037243      -0.02542442
C        6.33476997       7.96690186       6.47053359       0.17697781       0.22242037       0.15906350       0.11555687       0.04106765       0.17638846       0.00105536
H       10.94599680       6.71226778       9.98748644       0.05332571       0.21230631       0.06028781      -0.04725470      -0.13666841       0.04718301       0.38324780
H        3.16345457       7.48750437       8.37477575      -0.14165196      -0.03394467       0.00884304       0.20543693      -0.08720324       0.11058329       0.38334532
18
Lattice="15.108652899924854 0.0 0.0 0.0 15.108652899924854 0.0 0.0 0.0 15.108652899924854" Properties=species:S:1:pos:R:3:momenta:R:3:forces:R:3:charge:R:1 energy=-1060.2478502863232 free_energy=-1060.2478502863232 dipole="-0.380819652862479 0.14346864485854408 -0.2357923637093951" stress="0.0 0.0 0.0 0.0 0.0 0.0 0.0 0.0 0.0" pbc="T T T"
H        5.40214455       8.17999997       5.98612227      -0.05563538      -0.00931296      -0.10764764       0.01796549       0.02677563       0.01798978       0.05529544
H        7.53861409       8.71917066       4.85333320      -0.04621059       0.06198902      -0.10182309      -0.00755045      -0.11230320       0.06732227       0.04412468
C        8.75801588       7.45893107       7.76725648      -0.27021867       0.34804779      -0.25838650      -0.02405143       0.07889831      -0.04175624      -0.03441381
C       10.08192588       7.29011260       8.42263011       0.67774702       0.61835134      -1.16595712      -0.03621076       0.02797422      -0.00809889       0.58084122
O       10.03454356       6.69689153       9.62028059       0.03883771       0.23533260       0.51122118      -0.04214051       0.04528924      -0.01191806      -0.50621789
O       11.11280961       7.67827967       7.93650164      -0.93642404      -1.29082702       0.51394438       0.10097559      -0.03947197       0.00590412      -0.53310052
C        6.34653437       7.44653565       7.77365753       0.26646956      -0.26049547      -0.07200619      -0.00118074       0.03398950      -0.08650631      -0.03430472
C        5.07431226       7.17040163       8.49811281       0.52570815      -0.77664769       0.93206450       0.06552894       0.00066194       0.06160850       0.58024799
O        4.00305242       7.66975185       7.86836632      -0.17207546      -0.10422771      -0.30195556       0.00313017      -0.03753996       0.00620111      -0.50955946
O        4.99194727       6.58044286       9.54520496      -0.23101748       0.31534020      -0.82894645       0.06001530       0.08725184      -0.14618345      -0.52866646
H        9.69150609       8.19739273       5.98231463      -0.06559552       0.06529692      -0.06881053      -0.02664839       0.01668651       0.02917899       0.06072074
H        7.54420910       6.82193792       9.43218494       0.05929115       0.11189222      -0.06096823       0.03088798      -0.09506328       0.07424730       0.07039233
C        8.74599071       7.99064553       6.47367418       0.13740204      -0.02103750       0.75992090      -0.02996283       0.04070521       0.00862566       0.00346410
C        7.55646154       7.19418432       8.41662114      -0.01673447       0.23401572      -0.11006473      -0.00519548       0.00508996       0.02203971       0.00751287
C        7.54355498       8.26598980       5.84121636      -0.00019557       0.07150051       0.13122073      -0.01387582      -0.02368616       0.00101174      -0.02448608
C        6.34526863       7.98339424       6.48347314       0.17697781       0.22242037       0.15906350      -0.00270011       0.01170779      -0.00972452       0.00097223
H       10.93227912       6.68215410       9.99220080       0.05332571       0.21230631       0.06028781      -0.02883459      -0.04769154      -0.01220123       0.38319341
H        3.21249771       7.46999920       8.39364956      -0.14165196      -0.03394467       0.00884304      -0.06015237      -0.01927404       0.02225952       0.38398394
18
Lattice="15.108652899924854 0.0 0.0 0.0 15.108652899924854 0.0 0.0 0.0 15.108652899924854" Properties=species:S:1:pos:R:3:momenta:R:3:forces:R:3:charge:R:1 energy=-1060.2576919521268 free_energy=-1060.2576919521268 dipole="-0.38200405593249387 0.1286003134369531 -0.23297436904137017" stress="0.0 0.0 0.0 0.0 0.0 0.0 0.0 0.0 0.0" pbc="T T T"
H        5.39977350       8.18822790       5.99650242      -0.05563538      -0.00931296      -0.10764764       0.00468168       0.02401458      -0.02280039       0.05599038
H        7.53493956       8.68057263       4.84079320      -0.04621059       0.06198902      -0.10182309       0.00428672      -0.00085024      -0.06025981       0.04424268
C        8.75485106       7.48482749       7.77331839      -0.27021867       0.34804779      -0.25838650       0.04030580       0.00400670       0.04116008      -0.03456199
C       10.08018628       7.30450728       8.41984406       0.67774702       0.61835134      -1.16595712       0.03803136      -0.01644295       0.04435721       0.58071640
O       10.01541608       6.72023447       9.62033590       0.03883771       0.23533260       0.51122118      -0.02104494      -0.01874482       0.05554334      -0.50669843
O       11.12305366       7.65912833       7.93242946      -0.93642404      -1.29082702       0.51394438      -0.00911338      -0.03040695      -0.01674851      -0.53297083
C        6.35342687       7.45653214       7.77265458       0.26646956      -0.26049547      -0.07200619      -0.02362434       0.02082678       0.03916550      -0.03445380
C        5.08385057       7.17995930       8.49050568       0.52570815      -0.77664769       0.93206450      -0.03502468      -0.03865525       0.02830213       0.58014784
O        4.00269949       7.65998540       7.86264280      -0.17207546      -0.10422771      -0.30195556      -0.02932353      -0.00134714       0.01543809      -0.50998742
O        5.00788605       6.59280579       9.53763781      -0.23101748       0.31534020      -0.82894645       0.02840110      -0.01418575       0.07915489      -0.52985013
H        9.69128085       8.20691232       5.99310880      -0.06559552       0.06529692      -0.06881053      -0.01317792       0.04895597      -0.01472749       0.06088343
H        7.54581234       6.79033304       9.43062404       0.05929115       0.11189222      -0.06096823       0.02404982       0.02444485      -0.06724577       0.07168758
C        8.74240402       8.00809284       6.47904988       0.13740204      -0.02103750       0.75992090       0.01893090       0.00081073      -0.00099386       0.00284100
C        7.55837331       7.19700975       8.42368741      -0.01673447       0.23401572      -0.11006473       0.00161155       0.01768160      -0.03622342       0.00857487
C        7.54183312       8.26222455       5.83895331      -0.00019557       0.07150051       0.13122073       0.00406855      -0.00090074      -0.03502752      -0.02411206
C        6.34628198       7.99223442       6.48538066       0.17697781       0.22242037       0.15906350      -0.01432300      -0.00151811      -0.01409601       0.00065944
H       10.91263179       6.65523972       9.98650287       0.05332571       0.21230631       0.06028781      -0.00477932      -0.01001557      -0.00356011       0.38295426
H        3.22096725       7.45738793       8.40282939      -0.14165196      -0.03394467       0.00884304      -0.01395638      -0.00767368      -0.03143834       0.38393677
18
Lattice="15.108652899924854 0.0 0.0 0.0 15.108652899924854 0.0 0.0 0.0 15.108652899924854" Properties=species:S:1:pos:R:3:momenta:R:3:forces:R:3:charge:R:1 energy=-1060.2622476649703 free_energy=-1060.2622476649703 dipole="-0.3946647262113718 0.12293555598333676 -0.24145549039514796" stress="0.0 0.0 0.0 0.0 0.0 0.0 0.0 0.0 0.0" pbc="T T T"
H        5.40081256       8.20051862       5.99244486      -0.05563538      -0.00931296      -0.10764764      -0.01433069      -0.00490905      -0.02130189       0.05542534
H        7.53559819       8.65752126       4.82364715      -0.04621059       0.06198902      -0.10182309       0.00423756      -0.00886916       0.02320444       0.04418361
C        8.75917548       7.50225032       7.77709870      -0.27021867       0.34804779      -0.25838650      -0.02396559      -0.00889442      -0.03967807      -0.03464878
C       10.08142789       7.30570103       8.42833990       0.67774702       0.61835134      -1.16595712      -0.03528474      -0.01340845      -0.03069064       0.58065360
O       10.00533575       6.72893073       9.63287622       0.03883771       0.23533260       0.51122118       0.01683972       0.01426155      -0.02431223      -0.50654124
O       11.12912793       7.63439900       7.93333827      -0.93642404      -1.29082702       0.51394438      -0.00343505      -0.03559141       0.03095921      -0.53251622
C        6.35044762       7.46749544       7.77399718       0.26646956      -0.26049547      -0.07200619       0.01574110      -0.02009181      -0.01247764      -0.03456593
C        5.08443883       7.17793045       8.49973826       0.52570815      -0.77664769       0.93206450       0.01738920       0.04389404      -0.00588461       0.58070601
O        3.99965859       7.64843182       7.86952489      -0.17207546      -0.10422771      -0.30195556       0.00754135      -0.02277456       0.00566364      -0.51015976
O        5.02171396       6.59771534       9.55171556      -0.23101748       0.31534020      -0.82894645      -0.00974555       0.00767914       0.00018298      -0.52852610
H        9.68787440       8.22968163       5.99253186      -0.06559552       0.06529692      -0.06881053       0.03011544       0.02542967      -0.02290767       0.06030108
H        7.55493074       6.78177850       9.41415278       0.05929115       0.11189222      -0.06096823      -0.01603319       0.02215988       0.02487506       0.07146401
C        8.74310580       8.01932128       6.47956918       0.13740204      -0.02103750       0.75992090       0.00916600       0.02077071      -0.01563078       0.00295747
C        7.55956821       7.20568374       8.41657976      -0.01673447       0.23401572      -0.11006473       0.00250112       0.00186604       0.01017148       0.00804820
C        7.54178049       8.25765448       5.83165838      -0.00019557       0.07150051       0.13122073      -0.00028825       0.00739457       0.02626405      -0.02450404
C        6.34488872       7.99702547       6.48251786       0.17697781       0.22242037       0.15906350      -0.00043454       0.00711735       0.00931712       0.00089331
H       10.90441691       6.63706634       9.98786964       0.05332571       0.21230631       0.06028781      -0.00042463      -0.00697841       0.02827490       0.38306244
H        3.21136572       7.44710983       8.39920021      -0.14165196      -0.03394467       0.00884304       0.00041074      -0.02905570       0.01397065       0.38376700
18
Lattice="15.108652899924854 0.0 0.0 0.0 15.108652899924854 0.0 0.0 0.0 15.108652899924854" Properties=species:S:1:pos:R:3:momenta:R:3:forces:R:3:charge:R:1 energy=-1060.2637695501887 free_energy=-1060.2637695501887 dipole="-0.3998399166290935 0.12336006918196588 -0.24535218892278884" stress="0.0 0.0 0.0 0.0 0.0 0.0 0.0 0.0 0.0" pbc="T T T"
H        5.40080086       8.20139938       5.98688910      -0.05563538      -0.00931296      -0.10764764       0.01667987      -0.01753763       0.01742647       0.05543122
H        7.53605477       8.65036078       4.82228786      -0.04621059       0.06198902      -0.10182309      -0.01258617       0.03091779       0.00059636       0.04396660
C        8.75965529       7.50376180       7.77196149      -0.27021867       0.34804779      -0.25838650       0.01585036      -0.00053964       0.02192783      -0.03445249
C       10.07906524       7.30003675       8.42668701       0.67774702       0.61835134      -1.16595712       0.02554968      -0.00525496       0.01251385       0.58062617
O       10.00001344       6.73198412       9.63526838       0.03883771       0.23533260       0.51122118      -0.02794811      -0.01764538       0.00761070      -0.50688550
O       11.13147261       7.61719682       7.93470475      -0.93642404      -1.29082702       0.51394438       0.01016183      -0.01156535      -0.03219330      -0.53274410
C        6.35050936       7.46899082       7.77374303       0.26646956      -0.26049547      -0.07200619      -0.00405884       0.04059100      -0.01431028      -0.03429995
C        5.08623815       7.18301942       8.50293146       0.52570815      -0.77664769       0.93206450       0.00801411      -0.03775509       0.00697837       0.58057310
O        3.99767959       7.64077969       7.87078727      -0.17207546      -0.10422771      -0.30195556       0.00352506      -0.00628248       0.00569244      -0.50985372
O        5.02673626       6.60512839       9.55690735      -0.23101748       0.31534020      -0.82894645      -0.00350699       0.03451164      -0.00613441      -0.52897508
H        9.69143188       8.24470468       5.98747349      -0.06559552       0.06529692      -0.06881053      -0.03861524      -0.00677472       0.02238259       0.06047231
H        7.55351978       6.78855712       9.41416753       0.05929115       0.11189222      -0.06096823       0.00859558       0.01747564       0.00154443       0.07179320
C        8.74674850       8.02762083       6.47658973       0.13740204      -0.02103750       0.75992090      -0.01076026      -0.01852150       0.01505170       0.00322674
C        7.56073479       7.20893595       8.41457540      -0.01673447       0.23401572      -0.11006473      -0.00324025       0.00456502      -0.00993713       0.00794820
C        7.54170475       8.26033356       5.83332769      -0.00019557       0.07150051       0.13122073       0.01343241       0.00633439      -0.01644949      -0.02463029
C        6.34361867       7.99946775       6.48282236       0.17697781       0.22242037       0.15906350       0.01938414      -0.00457772      -0.03144290       0.00095842
H       10.89764762       6.63115453       9.99333884       0.05332571       0.21230631       0.06028781      -0.02606324       0.01196123      -0.00746438       0.38295172
H        3.21203621       7.43278290       8.40233792      -0.14165196      -0.03394467       0.00884304       0.00558606      -0.01990223       0.00620716       0.38389346
18
Lattice="15.108652899924854 0.0 0.0 0.0 15.108652899924854 0.0 0.0 0.0 15.108652899924854" Properties=species:S:1:pos:R:3:momenta:R:3:forces:R:3:charge:R:1 energy=-1060.2657565327995 free_energy=-1060.2657565327995 dipole="-0.39915360538256217 0.12118024165391175 -0.24284481416458714" stress="0.0 0.0 0.0 0.0 0.0 0.0 0.0 0.0 0.0" pbc="T T T"
H        5.40432189       8.19551105       5.98137746      -0.05563538      -0.00931296      -0.10764764      -0.02517916      -0.00087483      -0.01563706       0.05531483
H        7.53425384       8.65558945       4.82015956      -0.04621059       0.06198902      -0.10182309       0.01996592       0.03865629      -0.00928557       0.04411751
C        8.76273032       7.50619238       7.76975542      -0.27021867       0.34804779      -0.25838650      -0.01092947       0.02243303      -0.00823181      -0.03437762
C       10.07984981       7.28863725       8.42396723       0.67774702       0.61835134      -1.16595712      -0.01195912       0.00028600      -0.00638094       0.58075588
O        9.98488456       6.73211418       9.63678687       0.03883771       0.23533260       0.51122118       0.00978440       0.00456819       0.00072083      -0.50688294
O       11.13765613       7.58267782       7.92925045      -0.93642404      -1.29082702       0.51394438      -0.01301488      -0.01714286       0.00251513      -0.53225569
C        6.35230255       7.47921011       7.77115184       0.26646956      -0.26049547      -0.07200619      -0.00101272      -0.02868707       0.01595393      -0.03455467
C        5.09111650       7.18749350       8.50423673       0.52570815      -0.77664769       0.93206450      -0.00620804       0.02801654       0.00253295       0.58038248
O        3.99460228       7.62452529       7.87172264      -0.17207546      -0.10422771      -0.30195556      -0.00342179      -0.02154519      -0.02222295      -0.50969985
O        5.03718813       6.62595811       9.56703931      -0.23101748       0.31534020      -0.82894645       0.03479437      -0.00919346       0.01955170      -0.52934077
H        9.68710203       8.26395631       5.98777136      -0.06559552       0.06529692      -0.06881053       0.04458321      -0.02616336       0.00524351       0.06010503
H        7.55330145       6.80771486       9.41487043       0.05929115       0.11189222      -0.06096823       0.00627761      -0.01067503       0.00901972       0.07196219
C        8.74770759       8.03435302       6.47687238       0.13740204      -0.02103750       0.75992090      -0.00543235       0.00907242      -0.01994644       0.00328458
C        7.56219691       7.21773540       8.41147807      -0.01673447       0.23401572      -0.11006473      -0.00337569       0.02239007       0.02546314       0.00798698
C        7.54448419       8.26605656       5.83090695      -0.00019557       0.07150051       0.13122073      -0.01743900      -0.00425128      -0.01272321      -0.02469122
C        6.34701932       8.00045759       6.47716434       0.17697781       0.22242037       0.15906350      -0.02993892      -0.00495124       0.01574408       0.00098467
H       10.87802597       6.62624801      10.00236798       0.05332571       0.21230631       0.06028781       0.00735320      -0.00722764       0.01129140       0.38297489
H        3.21692430       7.40178442       8.40992166      -0.14165196      -0.03394467       0.00884304       0.00515241       0.00528942      -0.01360842       0.38393372
18
Lattice="15.108652899924854 0.0 0.0 0.0 15.108652899924854 0.0 0.0 0.0 15.108652899924854" Properties=species:S:1:pos:R:3:momenta:R:3:forces:R:3:charge:R:1 energy=-1060.2672619022028 free_energy=-1060.2672619022028 dipole="-0.4052332714880749 0.1269438536798592 -0.23892796281452475" stress="0.0 0.0 0.0 0.0 0.0 0.0 0.0 0.0 0.0" pbc="T T T"
H        5.40108910       8.18889771       5.97502690      -0.05563538      -0.00931296      -0.10764764       0.00469255      -0.00441928       0.00722913       0.05529026
H        7.53706813       8.67268510       4.81896904      -0.04621059       0.06198902      -0.10182309      -0.00684310      -0.00840943       0.02325765       0.04409531
C        8.76199382       7.51363936       7.76758630      -0.27021867       0.34804779      -0.25838650      -0.00605747      -0.00401815       0.00534314      -0.03459029
C       10.07735066       7.28002509       8.42143694       0.67774702       0.61835134      -1.16595712      -0.01119989       0.00636099      -0.00271993       0.58075964
O        9.97480533       6.73311691       9.63864080       0.03883771       0.23533260       0.51122118       0.00217762       0.02124519      -0.00099519      -0.50715272
O       11.13913452       7.55172092       7.92298078      -0.93642404      -1.29082702       0.51394438      -0.00477268      -0.00505118      -0.00186842      -0.53193774
C        6.35279938       7.48401377       7.77006856       0.26646956      -0.26049547      -0.07200619       0.00664592       0.00849057      -0.01391503      -0.03464967
C        5.09544201       7.19203922       8.50769241       0.52570815      -0.77664769       0.93206450       0.01174335      -0.01730080      -0.00446828       0.58030009
O        3.99355039       7.60421989       7.86834294      -0.17207546      -0.10422771      -0.30195556       0.00808328      -0.02096358       0.00325202      -0.50949802
O        5.05226244       6.64384689       9.57831776      -0.23101748       0.31534020      -0.82894645      -0.00968092       0.01602052       0.00635666      -0.52967897
H        9.69197278       8.26778652       5.99080981      -0.06559552       0.06529692      -0.06881053      -0.01501940      -0.02458675      -0.01032689       0.06007647
H        7.55572551       6.82107208       9.41809223       0.05929115       0.11189222      -0.06096823      -0.00216388       0.00998257      -0.01202573       0.07241354
C        8.74716672       8.04034831       6.47332787       0.13740204      -0.02103750       0.75992090       0.00602385       0.00059219       0.01805764       0.00313512
C        7.56266144       7.23061703       8.41380924      -0.01673447       0.23401572      -0.11006473       0.00006450      -0.00482283      -0.01393456       0.00804931
C        7.54289076       8.27103882       5.82638952      -0.00019557       0.07150051       0.13122073       0.01311919       0.01956359       0.02468431      -0.02455288
C        6.34502646       8.00010545       6.47309598       0.17697781       0.22242037       0.15906350       0.01670220       0.01226151      -0.00477227       0.00104585
H       10.86456856       6.62136911      10.01099279       0.05332571       0.21230631       0.06028781       0.00405292      -0.00900375      -0.01384164       0.38287681
H        3.22015976       7.37967311       8.41122081      -0.14165196      -0.03394467       0.00884304      -0.01756803       0.00405861      -0.00931260       0.38401790
18
Lattice="15.108652899924854 0.0 0.0 0.0 15.108652899924854 0.0 0.0 0.0 15.108652899924854" Properties=species:S:1:pos:R:3:momenta:R:3:forces:R:3:charge:R:1 energy=-1060.2681491261083 free_energy=-1060.2681491261083 dipole="-0.4104963194331168 0.12269124664489935 -0.2422376489644434" stress="0.0 0.0 0.0 0.0 0.0 0.0 0.0 0.0 0.0" pbc="T T T"
H        5.40089122       8.18424512       5.97285404      -0.05563538      -0.00931296      -0.10764764       0.01209548       0.01610959      -0.00360559       0.05528481
H        7.53797466       8.68159730       4.82356680      -0.04621059       0.06198902      -0.10182309       0.00110901       0.00994183      -0.00969008       0.04403662
C        8.76155373       7.51852314       7.76799890      -0.27021867       0.34804779      -0.25838650       0.00784930      -0.00071921       0.00286448      -0.03449795
C       10.07443993       7.27660401       8.42023029       0.67774702       0.61835134      -1.16595712       0.01709336       0.00037643       0.00720090       0.58082213
O        9.96824600       6.74186562       9.64216286       0.03883771       0.23533260       0.51122118       0.00301493       0.00266648       0.01205946      -0.50715203
O       11.13809069       7.53028929       7.91645542      -0.93642404      -1.29082702       0.51394438       0.01098964      -0.00210896      -0.00551067      -0.53219534
C        6.35323645       7.48706228       7.76803694       0.26646956      -0.26049547      -0.07200619      -0.00816689      -0.00278395       0.01176390      -0.03470449
C        5.09905007       7.19099210       8.50898643       0.52570815      -0.77664769       0.93206450      -0.01443267       0.00155228       0.00505991       0.58048038
O        3.99377128       7.58318988       7.86348053      -0.17207546      -0.10422771      -0.30195556      -0.01041599      -0.00725477      -0.01683976      -0.50955408
O        5.06151635       6.66037955       9.58863447      -0.23101748       0.31534020      -0.82894645      -0.01112019       0.00780505       0.00027408      -0.52963919
H        9.69355078       8.26091748       5.98840945      -0.06559552       0.06529692      -0.06881053      -0.00174672       0.00385915      -0.01005899       0.06015684
H        7.55559300       6.83086695       9.41726410       0.05929115       0.11189222      -0.06096823      -0.00696703      -0.00760963       0.01639858       0.07258957
C        8.74860934       8.04559062       6.47498244       0.13740204      -0.02103750       0.75992090      -0.00289730      -0.00845850      -0.01009591       0.00318943
C        7.56231679       7.23766002       8.41283601      -0.01673447       0.23401572      -0.11006473       0.00043958      -0.00336180       0.01123593       0.00790427
C        7.54456394       8.28109224       5.83038792      -0.00019557       0.07150051       0.13122073      -0.00733095      -0.00510363      -0.00964748      -0.02461576
C        6.34582368       8.00444227       6.47220020       0.17697781       0.22242037       0.15906350      -0.00343582       0.00293191       0.01019734       0.00109051
H       10.85741885       6.61401561      10.01035600       0.05332571       0.21230631       0.06028781       0.00974976      -0.00012789      -0.00883369       0.38286311
H        3.21902102       7.36688183       8.40795788      -0.14165196      -0.03394467       0.00884304       0.00417249      -0.00771436      -0.00277240       0.38394117
18
Lattice="15.108652899924854 0.0 0.0 0.0 15.108652899924854 0.0 0.0 0.0 15.108652899924854" Properties=species:S:1:pos:R:3:momenta:R:3:forces:R:3:charge:R:1 energy=-1060.2687317995985 free_energy=-1060.2687317995985 dipole="-0.4095531935212323 0.12097218178608456 -0.24527749034068508" stress="0.0 0.0 0.0 0.0 0.0 0.0 0.0 0.0 0.0" pbc="T T T"
H        5.40469942       8.18924989       5.97116655      -0.05563538      -0.00931296      -0.10764764      -0.01545970       0.01590073       0.01581739       0.05518433
H        7.53808542       8.69081324       4.82603445      -0.04621059       0.06198902      -0.10182309      -0.00275013      -0.01111396       0.01343399       0.04410514
C        8.76231841       7.51955958       7.76930853      -0.27021867       0.34804779      -0.25838650      -0.00582968      -0.00477032      -0.00056182      -0.03456778
C       10.07642127       7.27543204       8.42057179       0.67774702       0.61835134      -1.16595712      -0.00914683      -0.00492960      -0.00892866       0.58067290
O        9.96949698       6.74973830       9.64658748       0.03883771       0.23533260       0.51122118       0.01498994      -0.00030095      -0.00965538      -0.50712113
O       11.14082519       7.51757474       7.91239903      -0.93642404      -1.29082702       0.51394438      -0.01142959      -0.00336866      -0.00097467      -0.53209960
C        6.35262956       7.48807855       7.77022855       0.26646956      -0.26049547      -0.07200619       0.00638344       0.00556443      -0.00331387      -0.03477884
C        5.09680701       7.19094086       8.50952597       0.52570815      -0.77664769       0.93206450       0.00451695       0.01055682      -0.00884430       0.58043583
O        3.99099997       7.56657380       7.85468765      -0.17207546      -0.10422771      -0.30195556       0.00407457      -0.00162237      -0.00286459      -0.50954456
O        5.05864506       6.67345044       9.59547786      -0.23101748       0.31534020      -0.82894645      -0.00839105       0.00857411      -0.00180520      -0.52951698
H        9.69198885       8.25567183       5.98246402      -0.06559552       0.06529692      -0.06881053       0.00194289      -0.00016235       0.01310743       0.06000851