18
Lattice="15.108652899924854 0.0 0.0 0.0 15.108652899924854 0.0 0.0 0.0 15.108652899924854" Properties=species:S:1:pos:R:3:momenta:R:3:forces:R:3:charge:R:1 energy=-1059.960907325383 free_energy=-1059.960907325383 dipole="-0.4183138365716914 0.1482052204328373 -0.16801968463399827" stress="0.0 0.0 0.0 0.0 0.0 0.0 0.0 0.0 0.0" pbc="T T T"
H        5.37730412       8.08098700       6.01694928      -0.18680151       0.11435669       0.28049268       0.12887462      -0.01590299      -0.01551732       0.05485129
H        7.48034505       8.54910439       4.77717148      -0.21066255      -0.17414511       0.03065241      -0.04429214       0.22790177      -0.22995354       0.04512401
C        8.80931432       7.64049345       7.76166252      -0.70046455       1.35514967      -0.02301637      -0.15570260      -0.34248764      -0.18334803      -0.03731464
C       10.09413807       7.25518133       8.42689867       0.71706940      -0.55881662      -0.60009884      -0.19739054      -0.11381507       0.04726248       0.58635519
O        9.82267216       6.57483363       9.55893365      -0.99086134       0.14859881       0.06052131      -0.12560468       0.21797797       0.13480850      -0.52029743
O       11.19668863       7.45247190       8.00050809      -0.81873762      -1.11342823       0.34014974       0.02634599       0.14793186       0.12969420      -0.51703569
C        6.38676244       7.48471679       7.81347819       1.08409853      -0.07906820       0.60059104       0.29571959       0.33150849       0.16073784      -0.03307794
C        5.12291415       7.16029595       8.52745317       0.42121112      -0.44851715      -0.01157176      -0.01447383       0.09882258      -0.05183297       0.58072762
O        4.04250064       7.68754868       7.93431690      -1.87968822      -0.32380443       1.04124742      -0.03042957      -0.18531027      -0.30170638      -0.51266653
O        5.01966800       6.49453649       9.52050010      -0.03887019       0.50712272      -1.41399247       0.28639856      -0.21426299       0.20045504      -0.52700199
H        9.68305292       8.24091285       5.90089241      -0.24062694      -0.12570103      -0.10111225      -0.00226240       0.16882043      -0.01341105       0.05729081
H        7.73779415       6.99583442       9.45781659       0.19214995      -0.02160735      -0.22296067      -0.53395691      -0.10614771       0.05048689       0.07306216
C        8.75530645       8.10690515       6.44463386       0.53674881       0.89384363      -0.55028473      -0.29255410      -0.29046127      -0.06620932       0.00255316
C        7.62778043       7.33464639       8.43723756      -0.10429499      -0.25704612      -0.51774223      -0.18039365       0.17168350      -0.12357754       0.00508602
C        7.51642331       8.26868431       5.81415369       1.09024940       0.06707060       0.65990272       0.26651803      -0.36159013       0.70728741      -0.02604610
C        6.34239674       7.96660822       6.50351443       1.47779878       0.02176770       0.35191491       0.19740071       0.09755852      -0.26006571       0.00041044
H       10.51127814       6.50727111      10.22858479      -0.04764931       0.19654032       0.28300882       0.53861822      -0.03911225      -0.31646048       0.38388132
H        3.26798972       7.24900630       8.31924194      -0.30066876      -0.20231592      -0.20770173      -0.16281533       0.20688519       0.13134999       0.38409828
18
Lattice="15.108652899924854 0.0 0.0 0.0 15.108652899924854 0.0 0.0 0.0 15.108652899924854" Properties=species:S:1:pos:R:3:momenta:R:3:forces:R:3:charge:R:1 energy=-1060.1661180387994 free_energy=-1060.1661180387994 dipole="-0.48363943797866227 0.1690661665561539 -0.21394935510325544" stress="0.0 0.0 0.0 0.0 0.0 0.0 0.0 0.0 0.0" pbc="T T T"
H        5.40216008       8.08279677       5.99689633      -0.18680151       0.11435669       0.28049268      -0.05884853       0.08277033      -0.04902774       0.05479225
H        7.48544030       8.58552723       4.79508976      -0.21066255      -0.17414511       0.03065241       0.04464192       0.00455503      -0.03886460       0.04345977
C        8.79034068       7.55216726       7.74505241      -0.70046455       1.35514967      -0.02301637       0.01649481       0.07916488       0.17651850      -0.03353347
C       10.06440635       7.23787751       8.44213499       0.71706940      -0.55881662      -0.60009884       0.15781198       0.04751490       0.06918871       0.58192459
O        9.82857557       6.63148726       9.61509629      -0.99086134       0.14859881       0.06052131      -0.01665349       0.03850100       0.09685047      -0.51132730
O       11.17281356       7.48136537       8.04377396      -0.81873762      -1.11342823       0.34014974      -0.09185258       0.01649440      -0.04664789      -0.52828390
C        6.38099935       7.55192434       7.82612880       1.08409853      -0.07906820       0.60059104      -0.03052909      -0.03224903      -0.16988277      -0.03377912
C        5.12795703       7.17369063       8.52905608       0.42121112      -0.44851715      -0.01157176       0.07115372      -0.11123751      -0.17344311       0.58182508
O        4.03620605       7.61567337       7.89021576      -1.87968822      -0.32380443       1.04124742       0.02266739       0.01003998       0.10773083      -0.51028667
O        5.08955516       6.48814335       9.51605153      -0.03887019       0.50712272      -1.41399247      -0.13534495       0.15754830       0.06444879      -0.52623953
H        9.68019303       8.27191165       5.90764271      -0.24062694      -0.12570103      -0.10111225       0.04006601      -0.14788550       0.07089374       0.05810263
H        7.60366457       6.97562512       9.46472428       0.19214995      -0.02160735      -0.22296067       0.05312705       0.02706682      -0.00560017       0.07345548
C        8.76157673       8.04013707       6.43564968       0.53674881       0.89384363      -0.55028473      -0.16274708       0.00244820       0.10372884       0.00297660
C        7.60474323       7.34649620       8.44644386      -0.10429499      -0.25704612      -0.51774223      -0.15131132      -0.21916270      -0.04756476       0.00642818
C        7.53279281       8.23263935       5.81793617       1.09024940       0.06707060       0.65990272       0.04933948       0.09612412       0.04336422      -0.02534921
C        6.35283642       7.97874213       6.50176853       1.47779878       0.02176770       0.35191491       0.01736880       0.03393675      -0.20256259      -0.00024760
H       10.63943124       6.49667932      10.12278037      -0.04764931       0.19654032       0.28300882       0.25762376      -0.03163468      -0.09889924       0.38217668
H        3.24063730       7.30715444       8.34750578      -0.30066876      -0.20231592      -0.20770173      -0.08300788      -0.05399528       0.09976876       0.38390553
18
Lattice="15.108652899924854 0.0 0.0 0.0 15.108652899924854 0.0 0.0 0.0 15.108652899924854" Properties=species:S:1:pos:R:3:momenta:R:3:forces:R:3:charge:R:1 energy=-1060.2302903239895 free_energy=-1060.2302903239895 dipole="-0.44537889358906046 0.11795951933406564 -0.27733324632279943" stress="0.0 0.0 0.0 0.0 0.0 0.0 0.0 0.0 0.0" pbc="T T T"
H        5.38968663       8.11880407       5.96024923      -0.18680151       0.11435669       0.28049268       0.11043650       0.07048022       0.00131685       0.05554641
H        7.51874966       8.60265032       4.78843923      -0.21066255      -0.17414511       0.03065241       0.11953798       0.02315477       0.06150284       0.04411348
C        8.77184108       7.54669941       7.78074325      -0.70046455       1.35514967      -0.02301637      -0.01210008      -0.02610485      -0.02722489      -0.03360276
C       10.05646889       7.25541528       8.47669118       0.71706940      -0.55881662      -0.60009884       0.03644643       0.04689570      -0.05994262       0.58004263
O        9.88011322       6.66899922       9.66975667      -0.99086134       0.14859881       0.06052131       0.13778138       0.00510782      -0.05201667      -0.50776304
O       11.15342771       7.49372658       8.04229005      -0.81873762      -1.11342823       0.34014974      -0.06708515       0.03379084      -0.11534280      -0.53088623
C        6.36418356       7.52122710       7.77621192       1.08409853      -0.07906820       0.60059104      -0.08757779      -0.15528799       0.04901042      -0.03462458
C        5.11799427       7.15868486       8.49862642       0.42121112      -0.44851715      -0.01157176      -0.09044278       0.09698212       0.07208298       0.58064894
O        4.00928922       7.59598678       7.88872812      -1.87968822      -0.32380443       1.04124742      -0.06188850      -0.04557712      -0.03717897      -0.50994722
O        5.09082366       6.53745921       9.52914664      -0.03887019       0.50712272      -1.41399247      -0.04029768       0.02662385      -0.02490990      -0.52906439
H        9.68475011       8.22239621       5.94940960      -0.24062694      -0.12570103      -0.10111225       0.04902626      -0.03340696       0.06205627       0.05800694
H        7.56341420       6.96727310       9.46857520       0.19214995      -0.02160735      -0.22296067      -0.05064805      -0.10724141      -0.11663187       0.07389892
C        8.75129430       8.02755167       6.46606574       0.53674881       0.89384363      -0.55028473      -0.01225375       0.02483004      -0.00567562       0.00320890
C        7.57001332       7.29473813       8.43322156      -0.10429499      -0.25704612      -0.51774223      -0.02654490       0.18093200       0.03823745       0.00753551
C        7.54329228       8.25192525       5.81530001       1.09024940       0.06707060       0.65990272      -0.02419894      -0.06618292       0.03856323      -0.02443125
C        6.34352031       7.99340344       6.46358082       1.47779878       0.02176770       0.35191491       0.05208461      -0.10524144       0.07515250       0.00084675
H       10.75774976       6.48043572      10.04512862      -0.04764931       0.19654032       0.28300882      -0.08315988       0.02785457       0.01692371       0.38280216
H        3.22771730       7.31266203       8.39178305      -0.30066876      -0.20231592      -0.20770173       0.05088433       0.00239078       0.02407710       0.38366885
18
Lattice="15.108652899924854 0.0 0.0 0.0 15.108652899924854 0.0 0.0 0.0 15.108652899924854" Properties=species:S:1:pos:R:3:momenta:R:3:forces:R:3:charge:R:1 energy=-1060.2510143256284 free_energy=-1060.2510143256284 dipole="-0.4172321114981998 0.10735551843305678 -0.25636312970544395" stress="0.0 0.0 0.0 0.0 0.0 0.0 0.0 0.0 0.0" pbc="T T T"
H        5.40928103       8.14656170       5.94687854      -0.18680151       0.11435669       0.28049268      -0.05582157      -0.02536004      -0.02844962       0.05494721
H        7.55689735       8.61394031       4.80475252      -0.21066255      -0.17414511       0.03065241      -0.02719834       0.00859392      -0.01816868       0.04403032
C        8.75977205       7.54650745       7.79244521      -0.70046455       1.35514967      -0.02301637       0.00572470      -0.00368079       0.04522021      -0.03428953
C       10.05771811       7.26932573       8.47172890       0.71706940      -0.55881662      -0.60009884      -0.09045968      -0.01101722      -0.04066340       0.58083356
O        9.91187039       6.68572964       9.66914365      -0.99086134       0.14859881       0.06052131       0.05274924      -0.00248242      -0.05030867      -0.50746395
O       11.13849226       7.51167051       8.00262494      -0.81873762      -1.11342823       0.34014974       0.02897775       0.02607818      -0.06408807      -0.53056338
C        6.34740055       7.49460020       7.76728293       1.08409853      -0.07906820       0.60059104       0.03626997       0.11023554       0.01422547      -0.03392364
C        5.09892011       7.16315649       8.49566375       0.42121112      -0.44851715      -0.01157176      -0.03440093      -0.06315625       0.03330877       0.58062260
O        3.98842655       7.58179324       7.88025662      -1.87968822      -0.32380443       1.04124742      -0.05520002      -0.00215654      -0.02847932      -0.50867871
O        5.07005339       6.56440907       9.53951400      -0.03887019       0.50712272      -1.41399247      -0.02634484       0.02799356       0.05207595      -0.53065605
H        9.70014148       8.19875157       5.97835731      -0.24062694      -0.12570103      -0.10111225      -0.03821325       0.02603127       0.02580955       0.05896080
H        7.53810895       6.93485475       9.45408469       0.19214995      -0.02160735      -0.22296067      -0.01880574      -0.04053367       0.06658568       0.07271764
C        8.75248489       8.02281155       6.47850926       0.53674881       0.89384363      -0.55028473       0.09574505      -0.05339728       0.04124731       0.00298323
C        7.55177461       7.30050033       8.43565863      -0.10429499      -0.25704612      -0.51774223       0.07326243      -0.13969698       0.00106335       0.00726414
C        7.55035991       8.24288619       5.82257843       1.09024940       0.06707060       0.65990272       0.07530098      -0.01083382       0.01378156      -0.02472138
C        6.34675775       7.97720224       6.45985795       1.47779878       0.02176770       0.35191491       0.05197509       0.07240580      -0.03386458       0.00092680
H       10.79208825       6.48220881      10.02849143      -0.04764931       0.19654032       0.28300882      -0.04952328       0.06191650      -0.00466713       0.38278477
H        3.22378180       7.31312860       8.41611856      -0.30066876      -0.20231592      -0.20770173      -0.02403753       0.01906024      -0.02462837       0.38422557
18
Lattice="15.108652899924854 0.0 0.0 0.0 15.108652899924854 0.0 0.0 0.0 15.108652899924854" Properties=species:S:1:pos:R:3:momenta:R:3:forces:R:3:charge:R:1 energy=-1060.2582023715756 free_energy=-1060.2582023715756 dipole="-0.4143305321801241 0.10712447861827146 -0.2415774942450228" stress="0.0 0.0 0.0 0.0 0.0 0.0 0.0 0.0 0.0" pbc="T T T"
H        5.41680690       8.15027118       5.94001881      -0.18680151       0.11435669       0.28049268       0.03096545       0.00371692       0.03117357       0.05455764
H        7.56833575       8.61817252       4.80939603      -0.21066255      -0.17414511       0.03065241       0.00527329      -0.02617342       0.01887764       0.04395651
C        8.75497235       7.53537077       7.80058787      -0.70046455       1.35514967      -0.02301637      -0.02191431      -0.02401489      -0.03697513      -0.03409068
C       10.05753023       7.27137622       8.46214204       0.71706940      -0.55881662      -0.60009884       0.04658297      -0.03034512      -0.01479561       0.58105510
O        9.92710734       6.69108173       9.66022817      -0.99086134       0.14859881       0.06052131      -0.01265204      -0.01971705       0.01764954      -0.50721116
O       11.13022703       7.52371287       7.97669982      -0.81873762      -1.11342823       0.34014974      -0.01682292      -0.00573777       0.01805014      -0.53214691
C        6.34430453       7.49969638       7.77000267       1.08409853      -0.07906820       0.60059104      -0.00623272      -0.02122887       0.00406799      -0.03470369
C        5.08860367       7.16525028       8.49728354       0.42121112      -0.44851715      -0.01157176       0.03708621       0.01291197      -0.03914285       0.58026358
O        3.97645612       7.56841275       7.87122574      -1.87968822      -0.32380443       1.04124742       0.03625617       0.00259840       0.00627106      -0.50873758
O        5.05919934       6.58231275       9.55028221      -0.03887019       0.50712272      -1.41399247      -0.01608464       0.05043009      -0.00391992      -0.52981581
H        9.70627595       8.19798466       5.99487301      -0.24062694      -0.12570103      -0.10111225       0.03153519       0.00588602       0.01928281       0.05995438
H        7.52177162       6.91092605       9.45864836       0.19214995      -0.02160735      -0.22296067       0.02295385      -0.03215853      -0.01097322       0.07265436
C        8.75925964       8.01266503       6.48850988       0.53674881       0.89384363      -0.55028473      -0.05902660       0.03741525      -0.03645297       0.00306440
C        7.54667626       7.27846420       8.43896147      -0.10429499      -0.25704612      -0.51774223      -0.03065203       0.00604476       0.00087863       0.00780367
C        7.56299751       8.23949159       5.82582640       1.09024940       0.06707060       0.65990272      -0.06070848       0.03076878       0.01614326      -0.02470415
C        6.35416225       7.98591910       6.46103465       1.47779878       0.02176770       0.35191491      -0.02248398      -0.02369276       0.02073544       0.00102018
H       10.80677444       6.49910890      10.02019099      -0.04764931       0.19654032       0.28300882       0.06018321       0.03639633       0.02483327       0.38287670
H        3.21286854       7.31982141       8.41803565      -0.30066876      -0.20231592      -0.20770173      -0.02425861      -0.00310009      -0.03570368       0.38420345
18
Lattice="15.108652899924854 0.0 0.0 0.0 15.108652899924854 0.0 0.0 0.0 15.108652899924854" Properties=species:S:1:pos:R:3:momenta:R:3:forces:R:3:charge:R:1 energy=-1060.2628877191335 free_energy=-1060.2628877191335 dipole="-0.40453900549194877 0.10352274406475914 -0.24627944441164615" stress="0.0 0.0 0.0 0.0 0.0 0.0 0.0 0.0 0.0" pbc="T T T"
H        5.42123284       8.15373565       5.94629928      -0.18680151       0.11435669       0.28049268      -0.06977084       0.01643762       0.00369019       0.05467684
H        7.57106387       8.61323240       4.81250229      -0.21066255      -0.17414511       0.03065241      -0.03471777       0.04879733       0.00336438       0.04419814
C        8.74913413       7.51513292       7.79726180      -0.70046455       1.35514967      -0.02301637       0.03232901       0.00447207       0.03964967      -0.03472354
C       10.05907541       7.25871850       8.45184752       0.71706940      -0.55881662      -0.60009884      -0.01102736       0.01412938       0.04196270       0.58088439
O        9.94527514       6.68546652       9.65568027      -0.99086134       0.14859881       0.06052131       0.02185406      -0.00824229       0.01069993      -0.50709208
O       11.12492919       7.52909318       7.96179530      -0.81873762      -1.11342823       0.34014974       0.01213938      -0.01995484       0.00039042      -0.53194976
C        6.34222716       7.49348932       7.77345805       1.08409853      -0.07906820       0.60059104      -0.00309318      -0.01464671      -0.00434232      -0.03441234
C        5.08303828       7.17211569       8.49571732       0.42121112      -0.44851715      -0.01157176      -0.02640330       0.03073296       0.05038222       0.58044956
O        3.97380576       7.56405003       7.85756323      -1.87968822      -0.32380443       1.04124742       0.00242556      -0.00065659      -0.04081049      -0.50905127
O        5.04691538       6.61567908       9.56261451      -0.03887019       0.50712272      -1.41399247      -0.01259193       0.00176102       0.01962248      -0.53027205
H        9.71019863       8.20120952       6.01722172      -0.24062694      -0.12570103      -0.10111225      -0.02459695       0.02717964      -0.04092814       0.06039329
H        7.52342004       6.87803217       9.45541121       0.19214995      -0.02160735      -0.22296067       0.00304946      -0.02333729      -0.02425903       0.07264272
C        8.75377564       8.01640555       6.49411010       0.53674881       0.89384363      -0.55028473       0.04328890      -0.03472632       0.03141168       0.00274595
C        7.54310904       7.25794912       8.43978927      -0.10429499      -0.25704612      -0.51774223       0.01803283      -0.00678760      -0.00818484       0.00824186
C        7.55944176       8.25011805       5.83322865       1.09024940       0.06707060       0.65990272       0.03198713      -0.05919587      -0.01213041      -0.02442265
C        6.35425963       7.98759072       6.46867725       1.47779878       0.02176770       0.35191491      -0.01154016      -0.00205753      -0.01750533       0.00092650
H       10.83168588       6.53421865      10.02307226      -0.04764931       0.19654032       0.28300882      -0.01065976       0.02297669      -0.02091428       0.38271762
H        3.20174168       7.32380130       8.39769728      -0.30066876      -0.20231592      -0.20770173       0.03929492       0.00311835      -0.03209885       0.38404683
18
Lattice="15.108652899924854 0.0 0.0 0.0 15.108652899924854 0.0 0.0 0.0 15.108652899924854" Properties=species:S:1:pos:R:3:momenta:R:3:forces:R:3:charge:R:1 energy=-1060.2667962981402 free_energy=-1060.2667962981402 dipole="-0.4015175394212655 0.11639482767594471 -0.24925728827447313" stress="0.0 0.0 0.0 0.0 0.0 0.0 0.0 0.0 0.0" pbc="T T T"
H        5.41106514       8.16178442       5.95733630      -0.18680151       0.11435669       0.28049268       0.03968895       0.00371035       0.01943270       0.05523324
H        7.56365374       8.62284424       4.82247383      -0.21066255      -0.17414511       0.03065241       0.00683510       0.00849855       0.01758468       0.04398962
C        8.75057448       7.49981943       7.80005666      -0.70046455       1.35514967      -0.02301637      -0.00304307       0.00994144      -0.02243488      -0.03452312
C       10.06192422       7.25050928       8.45323744       0.71706940      -0.55881662      -0.60009884      -0.00018304       0.00833380      -0.01784391       0.58060868
O        9.96304496       6.68019505       9.65904918      -0.99086134       0.14859881       0.06052131      -0.00304400       0.04450979       0.00347930      -0.50649146
O       11.12335961       7.52644428       7.95570199      -0.81873762      -1.11342823       0.34014974       0.02125664      -0.00232704       0.01332772      -0.53286049
C        6.34094739       7.48667538       7.77580248       1.08409853      -0.07906820       0.60059104       0.01578638      -0.00982334       0.00836280      -0.03471695
C        5.07842782       7.18436442       8.50087461       0.42121112      -0.44851715      -0.01157176       0.00506148      -0.03218181      -0.02098469       0.58038423
O        3.97852630       7.55961352       7.83663702      -1.87968822      -0.32380443       1.04124742      -0.00073937       0.00271009      -0.00233924      -0.50938214
O        5.03054769       6.64931563       9.57810205      -0.03887019       0.50712272      -1.41399247      -0.01300598       0.03703900      -0.00003695      -0.52972455
H        9.70697830       8.21356351       6.02224538      -0.24062694      -0.12570103      -0.10111225      -0.03235813      -0.00697604      -0.01388743       0.06052807
H        7.52409954       6.84215857       9.44594869       0.19214995      -0.02160735      -0.22296067      -0.00982038      -0.00187270       0.00866941       0.07221131
C        8.75387053       8.01033588       6.49970804       0.53674881       0.89384363      -0.55028473      -0.02347281      -0.00482554      -0.02292083       0.00317074
C        7.54256606       7.23887004       8.43725605      -0.10429499      -0.25704612      -0.51774223       0.01498132      -0.02749465      -0.00385322       0.00791140
C        7.55798944       8.24164129       5.83756844       1.09024940       0.06707060       0.65990272      -0.01770524       0.01233931       0.00426714      -0.02460717
C        6.34968423       7.98459601       6.47149253       1.47779878       0.02176770       0.35191491       0.01300983      -0.00951122       0.02018698       0.00116455
H       10.85710386       6.56899300      10.02129344      -0.04764931       0.19654032       0.28300882      -0.00204279      -0.03095875       0.01404329       0.38307993
H        3.19996615       7.32831442       8.36916317      -0.30066876      -0.20231592      -0.20770173      -0.01120489      -0.00111125      -0.00505285       0.38402411
18
Lattice="15.108652899924854 0.0 0.0 0.0 15.108652899924854 0.0 0.0 0.0 15.108652899924854" Properties=species:S:1:pos:R:3:momenta:R:3:forces:R:3:charge:R:1 energy=-1060.2685615908435 free_energy=-1060.2685615908435 dipole="-0.3999247622297841 0.10320701904216441 -0.2578939549890196" stress="0.0 0.0 0.0 0.0 0.0 0.0 0.0 0.0 0.0" pbc="T T T"
H        5.41344026       8.16791261       5.96817945      -0.18680151       0.11435669       0.28049268      -0.02390467       0.00228635       0.00170052       0.05540587
H        7.56049397       8.63253589       4.83013566      -0.21066255      -0.17414511       0.03065241      -0.01055763       0.00400059      -0.00299533       0.04418595
C        8.75289823       7.49332283       7.79802578      -0.70046455       1.35514967      -0.02301637       0.00058395      -0.03005204       0.00194876      -0.03437868
C       10.06676945       7.25144216       8.45104309       0.71706940      -0.55881662      -0.60009884       0.01878008       0.00480897       0.00677180       0.58063652
O        9.96941565       6.69264953       9.66258392      -0.99086134       0.14859881       0.06052131      -0.02001347       0.01547976       0.01259524      -0.50676417
O       11.12902224       7.52428930       7.95340022      -0.81873762      -1.11342823       0.34014974      -0.01207498       0.00255139      -0.01880822      -0.53264125
C        6.34369115       7.47518678       7.77861551       1.08409853      -0.07906820       0.60059104      -0.00983079      -0.01650872      -0.01147286      -0.03474219
C        5.07561803       7.18531137       8.49955210       0.42121112      -0.44851715      -0.01157176       0.00798314       0.02549116       0.01019746       0.58030274
O        3.98046372       7.55641249       7.82379441      -1.87968822      -0.32380443       1.04124742       0.01195033      -0.03271232      -0.00736190      -0.50969942
O        5.01794319       6.67463378       9.58771258      -0.03887019       0.50712272      -1.41399247       0.00029123      -0.00776493       0.00923329      -0.52945526
H        9.69741901       8.21692649       6.01646228      -0.24062694      -0.12570103      -0.10111225       0.03557908      -0.00879914      -0.01171991       0.06024373
H        7.52427086       6.82385462       9.44393930       0.19214995      -0.02160735      -0.22296067       0.02266181      -0.00539802       0.00525626       0.07212176
C        8.75019111       8.00597127       6.49869635       0.53674881       0.89384363      -0.55028473       0.01351827       0.01000762       0.00605091       0.00317005
C        7.54657842       7.22214372       8.43587288      -0.10429499      -0.25704612      -0.51774223      -0.01506819       0.01240489       0.00730235       0.00817315
C        7.55430767       8.24117317       5.84069791       1.09024940       0.06707060       0.65990272       0.00524138       0.01439876       0.00671346      -0.02464707
C        6.35043143       7.98091754       6.47818404       1.47779878       0.02176770       0.35191491      -0.00846863       0.00810368      -0.00969519       0.00108073
H       10.86341285       6.57498914      10.02390200      -0.04764931       0.19654032       0.28300882      -0.01510131      -0.00981844      -0.00177898       0.38299358
H        3.19796221       7.33036569       8.35314985      -0.30066876      -0.20231592      -0.20770173      -0.00156963       0.01152044      -0.00393766       0.38401398
18
Lattice="15.108652899924854 0.0 0.0 0.0 15.108652899924854 0.0 0.0 0.0 15.108652899924854" Properties=species:S:1:pos:R:3:momenta:R:3:forces:R:3:charge:R:1 energy=-1060.2692600757855 free_energy=-1060.2692600757855 dipole="-0.39750154765804474 0.10100217228648367 -0.25728580821424646" stress="0.0 0.0 0.0 0.0 0.0 0.0 0.0 0.0 0.0" pbc="T T T"
H        5.41067574       8.16988192       5.97357600      -0.18680151       0.11435669       0.28049268       0.00171524       0.00306942      -0.00203647       0.05557626
H        7.55657478       8.63735824       4.83327256      -0.21066255      -0.17414511       0.03065241      -0.00149630       0.01230502      -0.00519612       0.04406881
C        8.75375822       7.48807115       7.79528766      -0.70046455       1.35514967      -0.02301637       0.00486131       0.01827216       0.00081348      -0.03459967
C       10.06820333       7.25231495       8.45014836       0.71706940      -0.55881662      -0.60009884      -0.02101239      -0.00876956      -0.00097150       0.58075889
O        9.96735655       6.70198325       9.66544721      -0.99086134       0.14859881       0.06052131       0.00358820       0.00134007      -0.00045599      -0.50688088
O       11.12966901       7.52262651       7.94995845      -0.81873762      -1.11342823       0.34014974      -0.00180540      -0.01033538       0.00323867      -0.53225830
C        6.34434921       7.47004436       7.77876410       1.08409853      -0.07906820       0.60059104       0.00509917       0.01480271       0.01290294      -0.03471990
C        5.07618655       7.18637763       8.50135150       0.42121112      -0.44851715      -0.01157176      -0.01113238      -0.02776020       0.00364050       0.58036859
O        3.98334924       7.54845619       7.81734467      -1.87968822      -0.32380443       1.04124742      -0.00959335      -0.00454048      -0.00935515      -0.50983094
O        5.01457482       6.68333110       9.59297616      -0.03887019       0.50712272      -1.41399247       0.01647302       0.01383073       0.00231488      -0.52946578
H        9.69942904       8.21498500       6.01289046      -0.24062694      -0.12570103      -0.10111225      -0.00961667      -0.00921129       0.01497369       0.06027347