18
Lattice="15.099991252438835 0.0 0.0 0.0 15.099991252438835 0.0 0.0 0.0 15.099991252438835" Properties=species:S:1:pos:R:3:momenta:R:3:forces:R:3:charge:R:1 energy=-1059.6555754779095 free_energy=-1059.6555754779095 dipole="-0.872893547793702 0.35038363723825094 -0.2199244731947609" stress="0.0 0.0 0.0 0.0 0.0 0.0 0.0 0.0 0.0" pbc="T T T"
H        9.84730604       7.00534123       8.89247483       0.19587674      -0.15422819       0.08184425       0.04687601      -0.09550031       0.20052907       0.06812991
C        8.73831207       7.42027791       7.13388476      -0.47508533      -0.48561432       0.63927773       0.22996452       0.27355748      -0.22431488      -0.05743597
C       10.04303028       7.82143115       6.51480691       0.67927951       0.32332360       0.06713085       0.03290591       0.01150267      -0.17660827       0.58376114
H        7.71259076       6.79102607      10.28442381      -0.12660856       0.05141968       0.07924009       0.26332627      -0.20436496       0.46330825       0.04726807
O        9.91975897       8.77362564       5.57513934       0.80562541      -0.26481688      -1.14365261       0.00003780      -0.16423480      -0.12577957      -0.49231279
C        6.34663247       7.42390068       7.28730872       0.58215831      -0.09523736       0.08275769       0.03797029       0.20830497      -0.02545816      -0.02949678
C        4.99015704       7.85396590       6.85778567      -0.07974537       1.10775765       1.63612199       0.10049953       0.25603050      -0.16455915       0.58434482
O        5.05662923       8.45486049       5.65810986      -0.37835063      -0.55857721      -0.07317272       0.34508121      -0.19533994       0.08888880      -0.51892654
O        4.00815699       7.79495903       7.55013668      -0.82779651      -0.29276905      -0.23866035       0.15266599       0.05919802      -0.46960049      -0.51573909
O       11.09894625       7.40187172       6.89439911      -0.44268143       1.52904511      -2.04063028      -0.08275243       0.11882956      -0.18491036      -0.49709155
C        8.85294927       7.07976128       8.47889202      -0.04986238      -0.93197602       0.44372687      -0.27549995       0.06906058      -0.08533816       0.00799154
H        5.55215694       7.05136365       9.22093662       0.33450772       0.14383505      -0.21216490       0.18351358      -0.02587766      -0.02384329       0.06363481
H        7.41733125       7.92190831       5.47507783      -0.22093513       0.16015448       0.18100532       0.05071150      -0.15811003       0.38378660       0.04540436
C        7.50026360       7.61507291       6.52575701       0.38290850       0.85487075       0.52498788      -0.04954498      -0.05847295      -0.18595484      -0.01311900
C        7.70170153       6.95597940       9.22628872       0.84232021       0.12827730      -0.05156233      -0.15022739      -0.14000403       0.19017153      -0.02058648
C        6.46732878       7.11572737       8.63189765      -1.35145300      -1.38638721       0.53971978      -0.37988206      -0.14646830       0.37257916       0.00011691
H        8.98706422       8.94042844       5.36120698      -0.10216701       0.01979919      -0.19245454       0.20191128       0.11700539      -0.01536916       0.35763668
H        4.28464015       8.97647818       5.44188061       0.23200894      -0.14887658      -0.32351471      -0.70755708       0.07488383      -0.01752707       0.38641996
18
Lattice="15.099991252438835 0.0 0.0 0.0 15.099991252438835 0.0 0.0 0.0 15.099991252438835" Properties=species:S:1:pos:R:3:momenta:R:3:forces:R:3:charge:R:1 energy=-1059.794164909126 free_energy=-1059.794164909126 dipole="-0.8531638822131831 0.33609816740129556 -0.13365623405548724" stress="0.0 0.0 0.0 0.0 0.0 0.0 0.0 0.0 0.0" pbc="T T T"
H        9.81780490       6.98885352       8.92739719       0.19587674      -0.15422819       0.08184425      -0.01338164      -0.02397502       0.08056519       0.06405666
C        8.75164610       7.46026300       7.14680638      -0.47508533      -0.48561432       0.63927773       0.07603684      -0.19554038       0.15411417      -0.05648670
C       10.05266869       7.82423098       6.48245498       0.67927951       0.32332360       0.06713085      -0.01087427       0.05844492       0.18635044       0.58498622
H        7.77703897       6.73638792      10.33748750      -0.12660856       0.05141968       0.07924009      -0.09311913      -0.09632898      -0.32625463       0.04785267
O        9.93465640       8.74465165       5.51494881       0.80562541      -0.26481688      -1.14365261       0.01001349      -0.11940770      -0.12432906      -0.49063869
C        6.35713243       7.46098930       7.31624733       0.58215831      -0.09523736       0.08275769      -0.05292781       0.01535887       0.14789098      -0.03023716
C        5.02613875       7.89874291       6.82049907      -0.07974537       1.10775765       1.63612199      -0.16364348      -0.05341553      -0.05614078       0.58014522
O        5.05966868       8.49817983       5.62065786      -0.37835063      -0.55857721      -0.07317272       0.17793487       0.07728735       0.06497238      -0.51519376
O        4.01062433       7.81032882       7.45836008      -0.82779651      -0.29276905      -0.23866035      -0.02933897      -0.01351107       0.04953943      -0.52317789
O       11.11310448       7.41171421       6.85606451      -0.44268143       1.52904511      -2.04063028      -0.11648393      -0.03056271      -0.11470496      -0.49560451
C        8.82861615       7.08375784       8.49319278      -0.04986238      -0.93197602       0.44372687       0.05152408       0.16685143      -0.01912621       0.00668034
H        5.52994115       7.03728607       9.25439086       0.33450772       0.14383505      -0.21216490       0.10133367      -0.00221331      -0.10080732       0.06380054
H        7.41579553       7.89723921       5.50142321      -0.22093513       0.16015448       0.18100532       0.00342824      -0.01399530      -0.00062150       0.04737536
C        7.50768781       7.60807165       6.54325366       0.38290850       0.85487075       0.52498788      -0.00548034       0.22169332       0.15593722      -0.01365169
C        7.68562543       6.92970339       9.26624852       0.84232021       0.12827730      -0.05156233       0.05206192      -0.05946543      -0.05982933      -0.01960017
C        6.44458499       7.10344559       8.66791723      -1.35145300      -1.38638721       0.53971978       0.03750037       0.15801156       0.07666230       0.00334343
H        9.01383930       8.98594620       5.34212956      -0.10216701       0.01979919      -0.19245454       0.03351477       0.06750495      -0.04689644       0.35967008
H        4.19838173       8.91818728       5.46092758       0.23200894      -0.14887658      -0.32351471      -0.05809868      -0.15673697      -0.06732190       0.38668004
18
Lattice="15.099991252438835 0.0 0.0 0.0 15.099991252438835 0.0 0.0 0.0 15.099991252438835" Properties=species:S:1:pos:R:3:momenta:R:3:forces:R:3:charge:R:1 energy=-1059.8391137398385 free_energy=-1059.8391137398385 dipole="-0.8644960792750959 0.32846682885372114 -0.10524372980747182" stress="0.0 0.0 0.0 0.0 0.0 0.0 0.0 0.0 0.0" pbc="T T T"
H        9.81583262       6.97835178       8.96908919       0.19587674      -0.15422819       0.08184425      -0.02482086       0.02392878      -0.05963220       0.06374848
C        8.75977549       7.47558673       7.16755439      -0.47508533      -0.48561432       0.63927773      -0.00781124       0.19723293       0.09357484      -0.05484056
C       10.04599445       7.82717227       6.48193714       0.67927951       0.32332360       0.06713085       0.05118737      -0.13082384      -0.14632205       0.58563402
H        7.77699198       6.67244106      10.30345048      -0.12660856       0.05141968       0.07924009      -0.08051207      -0.11049503       0.05884242       0.04709856
O        9.93120804       8.69695349       5.46861033       0.80562541      -0.26481688      -1.14365261       0.02945042       0.05778062      -0.09331412      -0.49254574
C        6.35262360       7.49993760       7.33866459       0.58215831      -0.09523736       0.08275769      -0.00128108       0.10274653       0.05819959      -0.02965936
C        5.02414944       7.91171967       6.81706384      -0.07974537       1.10775765       1.63612199      -0.06624620       0.12079393       0.10470702       0.57940949
O        5.07647474       8.53462622       5.63232492      -0.37835063      -0.55857721      -0.07317272      -0.06951080      -0.04160484      -0.03105780      -0.51332223
O        3.99308900       7.80509112       7.42734372      -0.82779651      -0.29276905      -0.23866035      -0.00044631      -0.14416951       0.05003330      -0.52467457
O       11.10902008       7.39999016       6.82887630      -0.44268143       1.52904511      -2.04063028      -0.02668148      -0.03817062       0.06406685      -0.49677534
C        8.84016208       7.10488870       8.50943154      -0.04986238      -0.93197602       0.44372687       0.05085602      -0.07015000       0.03464482       0.00793039
H        5.53328825       7.03073982       9.25880216       0.33450772       0.14383505      -0.21216490      -0.02823543       0.02498254       0.05214313       0.06372046
H        7.41885210       7.88737577       5.52912607      -0.22093513       0.16015448       0.18100532       0.01697777       0.13611310      -0.08935932       0.04809736
C        7.50982730       7.65354093       6.58178294       0.38290850       0.85487075       0.52498788       0.05862890      -0.05051646      -0.06594759      -0.01393109
C        7.68752208       6.91988516       9.25394446       0.84232021       0.12827730      -0.05156233      -0.00981425       0.04823877       0.11224600      -0.02113821
C        6.44392599       7.13445508       8.68220910      -1.35145300      -1.38638721       0.53971978       0.05158118      -0.07658998      -0.02278688       0.00341171
H        9.03412598       9.02378504       5.31907755      -0.10216701       0.01979919      -0.19245454      -0.02532528      -0.02496541       0.00713899       0.36064695
H        4.17209262       8.84143875       5.44111841       0.23200894      -0.14887658      -0.32351471       0.08200334      -0.02433153      -0.12717700       0.38718967
18
Lattice="15.099991252438835 0.0 0.0 0.0 15.099991252438835 0.0 0.0 0.0 15.099991252438835" Properties=species:S:1:pos:R:3:momenta:R:3:forces:R:3:charge:R:1 energy=-1059.8691626769746 free_energy=-1059.8691626769746 dipole="-0.8602018774544505 0.3593649055738678 -0.11128876418983215" stress="0.0 0.0 0.0 0.0 0.0 0.0 0.0 0.0 0.0" pbc="T T T"
H        9.82033092       6.97625250       8.98465344       0.19587674      -0.15422819       0.08184425       0.02394356       0.01730543      -0.06835400       0.06371507
C        8.76347625       7.52904501       7.19293981      -0.47508533      -0.48561432       0.63927773      -0.04490367      -0.02632375      -0.08210603      -0.05495798
C       10.04354900       7.81634294       6.45833155       0.67927951       0.32332360       0.06713085      -0.03989491       0.07442354       0.08204907       0.58471288
H        7.74755684       6.58563549      10.29438771      -0.12660856       0.05141968       0.07924009       0.06419805      -0.01584049       0.06976419       0.04714539
O        9.93489680       8.65690283       5.41349390       0.80562541      -0.26481688      -1.14365261      -0.05139169      -0.08316174       0.09606997      -0.49364425
C        6.35647716       7.56465664       7.36687965       0.58215831      -0.09523736       0.08275769       0.01818871      -0.00677536      -0.06055312      -0.03030092
C        5.01308890       7.93789635       6.84064622      -0.07974537       1.10775765       1.63612199       0.09737547      -0.11164617      -0.04536404       0.58061018
O        5.07411229       8.54504603       5.64698727      -0.37835063      -0.55857721      -0.07317272      -0.06152513      -0.03545452       0.00710489      -0.51383594
O        3.97829166       7.75833423       7.42543500      -0.82779651      -0.29276905      -0.23866035       0.05508552       0.00778162      -0.01862983      -0.52160719
O       11.09627668       7.37155226       6.81264706      -0.44268143       1.52904511      -2.04063028       0.04420642      -0.05056288      -0.06870265      -0.49514982
C        8.84740257       7.11919088       8.52740705      -0.04986238      -0.93197602       0.44372687      -0.06738090       0.04762851      -0.03302635       0.00861452
H        5.54007603       7.03512537       9.27018487       0.33450772       0.14383505      -0.21216490      -0.00820003       0.00278984       0.02783466       0.06288765
H        7.43071475       7.92662363       5.53866590      -0.22093513       0.16015448       0.18100532      -0.00300177       0.09901698       0.12663790       0.04769285
C        7.51433310       7.69667476       6.59889463       0.38290850       0.85487075       0.52498788      -0.04114570       0.13928300       0.02420661      -0.01365080
C        7.69142848       6.91546547       9.26569489       0.84232021       0.12827730      -0.05156233      -0.01198835      -0.07020538      -0.03202115      -0.02111445
C        6.45140356       7.14919864       8.69453843      -1.35145300      -1.38638721       0.53971978      -0.03927878       0.08552323       0.00120754       0.00236397
H        9.05087849       9.03751895       5.30477069      -0.10216701       0.01979919      -0.19245454       0.06492291      -0.07276235      -0.01062088       0.36017074
H        4.17066234       8.77651737       5.37384904       0.23200894      -0.14887658      -0.32351471       0.00079026      -0.00101950      -0.01549678       0.38634810
18
Lattice="15.099991252438835 0.0 0.0 0.0 15.099991252438835 0.0 0.0 0.0 15.099991252438835" Properties=species:S:1:pos:R:3:momenta:R:3:forces:R:3:charge:R:1 energy=-1059.884586256621 free_energy=-1059.884586256621 dipole="-0.8579563180997478 0.38538285298755504 -0.11304428190054545" stress="0.0 0.0 0.0 0.0 0.0 0.0 0.0 0.0 0.0" pbc="T T T"
H        9.82135066       6.98128962       8.96404933       0.19587674      -0.15422819       0.08184425       0.00422529      -0.04654432       0.02204048       0.06322671
C        8.75946483       7.55704778       7.20271415      -0.47508533      -0.48561432       0.63927773       0.05834717      -0.01790049       0.06513231      -0.05580731
C       10.04183160       7.80930120       6.46315376       0.67927951       0.32332360       0.06713085       0.03869232      -0.01335262      -0.00056947       0.58507758
H        7.75300694       6.54425183      10.29522561      -0.12660856       0.05141968       0.07924009       0.01189574       0.06488478      -0.11715538       0.04734154
O        9.93578350       8.62579988       5.40503555       0.80562541      -0.26481688      -1.14365261       0.05998878       0.05965768      -0.07313139      -0.49321481
C        6.35933875       7.59306338       7.37768267       0.58215831      -0.09523736       0.08275769      -0.00148219       0.01904476       0.08605618      -0.02973412
C        5.01716639       7.92971592       6.83778980      -0.07974537       1.10775765       1.63612199      -0.07529556       0.04533146       0.00202304       0.58130862
O        5.06676790       8.53416753       5.64250604      -0.37835063      -0.55857721      -0.07317272       0.05302484      -0.04965632      -0.06202154      -0.51438232
O        3.98671708       7.72864881       7.42282463      -0.82779651      -0.29276905      -0.23866035      -0.04270695      -0.01842072      -0.03615616      -0.52220650
O       11.09296923       7.34192835       6.79560570      -0.44268143       1.52904511      -2.04063028      -0.08004586      -0.04941815       0.06074742      -0.49635540
C        8.83881579       7.12851109       8.52976177      -0.04986238      -0.93197602       0.44372687       0.03600356      -0.04466327       0.01549088       0.00795629
H        5.53996005       7.04132164       9.28151038       0.33450772       0.14383505      -0.21216490      -0.00384840       0.01470632      -0.03451471       0.06303237
H        7.43068108       7.99276536       5.56558614      -0.22093513       0.16015448       0.18100532      -0.03525944       0.14040024      -0.06801977       0.04796619
C        7.51384598       7.75227437       6.61739656       0.38290850       0.85487075       0.52498788       0.00997455      -0.02229659       0.01772072      -0.01365223
C        7.68743507       6.90170621       9.27044617       0.84232021       0.12827730      -0.05156233       0.03392106       0.08042037       0.01294943      -0.02049018
C        6.44996259       7.16910017       8.70456282      -1.35145300      -1.38638721       0.53971978      -0.00396600      -0.10236996       0.04663804       0.00321231
H        9.06271893       9.02371243       5.29262320      -0.10216701       0.01979919      -0.19245454      -0.03736086      -0.02589414      -0.00823570       0.36044020
H        4.16713947       8.74337378       5.34193284       0.23200894      -0.14887658      -0.32351471      -0.02610806      -0.03392903       0.07100560       0.38628108
18
Lattice="15.099991252438835 0.0 0.0 0.0 15.099991252438835 0.0 0.0 0.0 15.099991252438835" Properties=species:S:1:pos:R:3:momenta:R:3:forces:R:3:charge:R:1 energy=-1059.9015609148187 free_energy=-1059.9015609148187 dipole="-0.8452025392493687 0.4277251811119479 -0.09438148034230502" stress="0.0 0.0 0.0 0.0 0.0 0.0 0.0 0.0 0.0" pbc="T T T"
H        9.82818743       6.96251647       8.95008742       0.19587674      -0.15422819       0.08184425      -0.00698341      -0.07845743       0.04628068       0.06408983
C        8.76114057       7.59979118       7.21764701      -0.47508533      -0.48561432       0.63927773      -0.04569162       0.01285169      -0.05208252      -0.05601501
C       10.04045955       7.79552739       6.45961824       0.67927951       0.32332360       0.06713085      -0.02092966       0.00907470      -0.01424356       0.58467320
H        7.77026350       6.50852060      10.27111140      -0.12660856       0.05141968       0.07924009      -0.01377578       0.04320013       0.11132059       0.04728048
O        9.95336282       8.59482955       5.38466317       0.80562541      -0.26481688      -1.14365261       0.01653266      -0.01209022       0.03865399      -0.49272840
C        6.35889332       7.64373820       7.40687755       0.58215831      -0.09523736       0.08275769      -0.01085467      -0.00821356      -0.05921457      -0.02986037
C        5.01479075       7.92614728       6.83642063      -0.07974537       1.10775765       1.63612199       0.01410799      -0.02293959       0.01145250       0.58050335
O        5.06478551       8.49462477       5.62295391      -0.37835063      -0.55857721      -0.07317272      -0.03985003       0.01648039       0.04042276      -0.51387826
O        3.97947180       7.68474500       7.39690730      -0.82779651      -0.29276905      -0.23866035      -0.02993178       0.03124470       0.00635429      -0.52211793
O       11.06687465       7.27909785       6.79535309      -0.44268143       1.52904511      -2.04063028       0.03581484       0.03014450      -0.02646719      -0.49635459
C        8.84385392       7.13255889       8.52944180      -0.04986238      -0.93197602       0.44372687       0.00569909      -0.00093064      -0.01555518       0.00880439
H        5.53558271       7.05024457       9.28836374       0.33450772       0.14383505      -0.21216490       0.02271830      -0.08032052       0.01314565       0.06327184
H        7.41845844       8.14557944       5.61606894      -0.22093513       0.16015448       0.18100532       0.00882876       0.02703566       0.02099847       0.04718813
C        7.51299675       7.83394588       6.65165107       0.38290850       0.85487075       0.52498788      -0.02051752       0.03150051      -0.04092185      -0.01410878
C        7.69313792       6.90767931       9.26897508       0.84232021       0.12827730      -0.05156233       0.00483211      -0.02984198      -0.00546388      -0.02062477
C        6.44934354       7.17541423       8.71814401      -1.35145300      -1.38638721       0.53971978       0.02276443       0.07688534      -0.03460053       0.00364051
H        9.07648511       8.98791042       5.26895220      -0.10216701       0.01979919      -0.19245454       0.05655477      -0.00774571      -0.03234412       0.35976024
H        4.15686755       8.67510833       5.32717057       0.23200894      -0.14887658      -0.32351471       0.00068151      -0.03787797      -0.00773555       0.38647615
18
Lattice="15.099991252438835 0.0 0.0 0.0 15.099991252438835 0.0 0.0 0.0 15.099991252438835" Properties=species:S:1:pos:R:3:momenta:R:3:forces:R:3:charge:R:1 energy=-1059.907950128954 free_energy=-1059.907950128954 dipole="-0.8461356420042716 0.41571375068250355 -0.10264973396414724" stress="0.0 0.0 0.0 0.0 0.0 0.0 0.0 0.0 0.0" pbc="T T T"
H        9.82270435       6.93165598       8.95207972       0.19587674      -0.15422819       0.08184425      -0.00950461      -0.01709850      -0.05699127       0.06398202
C        8.75738215       7.60538994       7.21465506      -0.47508533      -0.48561432       0.63927773       0.03047713      -0.03206758       0.00860227      -0.05632325
C       10.04105209       7.79187936       6.45820221       0.67927951       0.32332360       0.06713085       0.03156250       0.02685802       0.02901877       0.58445681
H        7.77127262       6.52980547      10.28510922      -0.12660856       0.05141968       0.07924009      -0.01629956       0.03894403      -0.04328287       0.04734467
O        9.96859778       8.59414348       5.38666542       0.80562541      -0.26481688      -1.14365261      -0.00557470      -0.00671925      -0.02225851      -0.49196626
C        6.35615447       7.64896240       7.40515625       0.58215831      -0.09523736       0.08275769       0.01631105       0.01484039       0.02917860      -0.02962061
C        5.00875225       7.92168643       6.83773630      -0.07974537       1.10775765       1.63612199       0.00682182       0.02697113       0.01578641       0.58044893
O        5.05802875       8.48557429       5.62279681      -0.37835063      -0.55857721      -0.07317272      -0.02458688       0.00658002       0.00030850      -0.51383217
O        3.97106737       7.68351962       7.39571577      -0.82779651      -0.29276905      -0.23866035       0.03248413      -0.00657681       0.03666434      -0.52220319
O       11.06568146       7.27178582       6.79522448      -0.44268143       1.52904511      -2.04063028      -0.00991935      -0.00626342       0.02085852      -0.49707382
C        8.84413876       7.12628961       8.52501568      -0.04986238      -0.93197602       0.44372687      -0.01199169      -0.01691290      -0.00842243       0.00935227
H        5.54515436       7.02948886       9.28753824       0.33450772       0.14383505      -0.21216490      -0.01509849      -0.00622968      -0.00205269       0.06257146
H        7.41540149       8.19963465       5.62580008      -0.22093513       0.16015448       0.18100532       0.01628495      -0.01808469       0.03001229       0.04700885
C        7.50960670       7.85776980       6.65225923       0.38290850       0.85487075       0.52498788       0.02641119       0.00065761       0.03869083      -0.01329287
C        7.69614884       6.90917260       9.27113022       0.84232021       0.12827730      -0.05156233      -0.01653192       0.05403262       0.00473673      -0.02068054
C        6.45450460       7.18341837       8.71744745      -1.35145300      -1.38638721       0.53971978      -0.02714479      -0.07841607      -0.00719901       0.00348896
H        9.09100279       8.97596726       5.25112145      -0.10216701       0.01979919      -0.19245454       0.00683811       0.03009441      -0.03798157       0.35976472
H        4.14830498       8.65183542       5.32675355       0.23200894      -0.14887658      -0.32351471      -0.03053888      -0.01060933      -0.03566892       0.38657401
18
Lattice="15.099991252438835 0.0 0.0 0.0 15.099991252438835 0.0 0.0 0.0 15.099991252438835" Properties=species:S:1:pos:R:3:momenta:R:3:forces:R:3:charge:R:1 energy=-1059.9112955547791 free_energy=-1059.9112955547791 dipole="-0.8447502062299074 0.41819961745861056 -0.1194489604477019" stress="0.0 0.0 0.0 0.0 0.0 0.0 0.0 0.0 0.0" pbc="T T T"
H        9.81960705       6.90753482       8.94074750       0.19587674      -0.15422819       0.08184425       0.01957921      -0.00189350      -0.00980181       0.06400273
C        8.76017774       7.60900608       7.21598451      -0.47508533      -0.48561432       0.63927773      -0.00411518       0.01066924       0.01003821      -0.05585844
C       10.04434544       7.79217229       6.45958028       0.67927951       0.32332360       0.06713085      -0.01110881      -0.01651690      -0.01550892       0.58474954
H        7.76764322       6.54433557      10.28639230      -0.12660856       0.05141968       0.07924009       0.00167661      -0.00024498      -0.00435812       0.04713642
O        9.97744013       8.58667933       5.38100627       0.80562541      -0.26481688      -1.14365261       0.01708339      -0.00597005      -0.00357517      -0.49256872
C        6.35648458       7.66039512       7.40991045       0.58215831      -0.09523736       0.08275769      -0.01033790      -0.00262092       0.00276534      -0.02967240
C        5.00703024       7.92609124       6.84218786      -0.07974537       1.10775765       1.63612199      -0.00959486       0.00143870      -0.00051022       0.58061926
O        5.04672255       8.48284475       5.62337174      -0.37835063      -0.55857721      -0.07317272      -0.00725867      -0.00201036      -0.00774427      -0.51372839
O        3.97416480       7.67812773       7.40499032      -0.82779651      -0.29276905      -0.23866035       0.01420662       0.00657538       0.02094134      -0.52232431
O       11.06518482       7.26559664       6.79852454      -0.44268143       1.52904511      -2.04063028      -0.00160026       0.02595068       0.01470769      -0.49702420
C        8.84248536       7.12081562       8.52220365      -0.04986238      -0.93197602       0.44372687       0.00658998       0.00146297       0.00822350       0.00926875
H        5.54471760       7.01412185       9.28766878       0.33450772       0.14383505      -0.21216490      -0.02419265       0.00552028      -0.02288975       0.06278216
H        7.41881593       8.23322678       5.64270865      -0.22093513       0.16015448       0.18100532       0.00555737       0.00921008      -0.01789615       0.04619348
C        7.51229218       7.87854477       6.66348165       0.38290850       0.85487075       0.52498788      -0.00957311      -0.00841527      -0.00874872      -0.01308680
C        7.69430835       6.91724190       9.27132885       0.84232021       0.12827730      -0.05156233      -0.00192039      -0.03124009      -0.00736903      -0.02108623
C        6.45139144       7.17796629       8.71616126      -1.35145300      -1.38638721       0.53971978      -0.00231884       0.02418386       0.01439545       0.00387745
H        9.10570280       8.97631366       5.22944598      -0.10216701       0.01979919      -0.19245454       0.01084238      -0.00107137       0.00502576       0.36028639
H        4.13644161       8.62696492       5.31471253       0.23200894      -0.14887658      -0.32351471       0.00648510      -0.01502774       0.02230486       0.38643332
18
Lattice="15.099991252438835 0.0 0.0 0.0 15.099991252438835 0.0 0.0 0.0 15.099991252438835" Properties=species:S:1:pos:R:3:momenta:R:3:forces:R:3:charge:R:1 energy=-1059.911991114773 free_energy=-1059.911991114773 dipole="-0.8473159203090987 0.4149260391086079 -0.12660637837843447" stress="0.0 0.0 0.0 0.0 0.0 0.0 0.0 0.0 0.0" pbc="T T T"
H        9.82233063       6.90313040       8.93482106       0.19587674      -0.15422819       0.08184425      -0.01466950       0.00017571       0.00513193       0.06429081
C        8.75956534       7.61092740       7.21680243      -0.47508533      -0.48561432       0.63927773      -0.00486443      -0.00354453      -0.02892514      -0.05603268
C       10.04400581       7.79150050       6.45927130       0.67927951       0.32332360       0.06713085       0.00503446       0.02410868       0.01576444       0.58454872
H        7.76674427       6.54497155      10.28549790      -0.12660856       0.05141968       0.07924009       0.00294461      -0.02610026       0.01652428       0.04709259
O        9.98143209       8.58264659       5.37771295       0.80562541      -0.26481688      -1.14365261      -0.00841559      -0.01774010       0.00963034      -0.49248314
C        6.35651412       7.66311863       7.41075677       0.58215831      -0.09523736       0.08275769       0.00794547       0.00732582      -0.01655701      -0.02983895
C        5.00647325       7.92755188       6.84499376      -0.07974537       1.10775765       1.63612199       0.01250181      -0.00284326       0.00951920       0.58059452
O        5.04346872       8.48012042       5.62426645      -0.37835063      -0.55857721      -0.07317272      -0.01588273      -0.01491892       0.00869541      -0.51358698
O        3.97635579       7.67996040       7.41292640      -0.82779651      -0.29276905      -0.23866035      -0.00720169       0.01592951      -0.00294921      -0.52243516
O       11.06524877       7.27003132       6.80469447      -0.44268143       1.52904511      -2.04063028       0.00840916      -0.00062780       0.00836512      -0.49710942
C        8.84266534       7.11906707       8.52189259      -0.04986238      -0.93197602       0.44372687      -0.00539117       0.00406687      -0.01872145       0.00928804