18
Lattice="15.099991252438835 0.0 0.0 0.0 15.099991252438835 0.0 0.0 0.0 15.099991252438835" Properties=species:S:1:pos:R:3:momenta:R:3:forces:R:3:charge:R:1 energy=-1059.7426381290659 free_energy=-1059.7426381290659 dipole="-0.8498251977077423 0.2983428872704479 -0.35679471246037" stress="0.0 0.0 0.0 0.0 0.0 0.0 0.0 0.0 0.0" pbc="T T T"
H        9.67626086       7.15725411       9.17914227      -0.15528412       0.04727810       0.11387875      -0.16541354      -0.02871540       0.00786295       0.06350970
C        8.74391397       7.80704249       7.37474822      -0.35188726      -0.78094395      -0.01722969      -0.24444411      -0.13821165      -0.02267042      -0.05846734
C       10.09461550       7.81581778       6.67763130      -0.58619398       1.29144228      -0.48384472      -0.37800290       0.05485865      -0.01700977       0.58661937
H        7.51883643       6.60496380      10.34200145       0.21133799       0.15221100      -0.01651178       0.16463412      -0.00696963      -0.17628227       0.04586554
O       10.11260689       8.17674457       5.38516138      -1.27460111      -0.94910514      -0.49095263      -0.13621370      -0.04864211      -0.06971448      -0.49483196
C        6.30482921       7.68900131       7.38071740       0.43906893      -0.87126538       0.38433658       0.32689269       0.04822054      -0.06251407      -0.03067338
C        5.01459828       7.81292767       6.64672542       0.60586745       0.85617226      -1.18766168      -0.44833957      -0.08963252       0.32745498       0.58046340
O        5.10141121       8.55519361       5.53091333      -0.17520405      -1.06785904       0.37148159       0.11283470      -0.13347122       0.12761963      -0.51328766
O        3.99316383       7.29322092       7.03185161      -0.98698615      -0.15956586       0.08567430       0.39448471       0.33355129      -0.39856553      -0.52281814
O       11.09623092       7.45395053       7.22431005       1.49854153       0.13274518       1.63460782      -0.08266325       0.15527849       0.22659287      -0.49337288
C        8.71919123       7.32024831       8.68425168       0.22340477      -0.41607524       0.35087515       0.07624300      -0.30308177       0.25166334       0.00919632
H        5.37054623       6.74252576       9.05877188      -0.11105871       0.26798065       0.26391244       0.23609662       0.09974967       0.06905259       0.06405056
H        7.44051982       8.56558542       5.81608927      -0.06162498       0.04723479       0.31765563       0.13012202      -0.04683938      -0.17545959       0.04354056
C        7.50446413       8.08076725       6.78203697       0.40453555       0.09170344      -0.83757291       0.20189163      -0.10887909      -0.23147098      -0.01185963
C        7.52594186       6.97961767       9.31971491       0.34820877      -0.47597299       0.15285429      -0.05464365       0.09484662       0.06220851      -0.02179774
C        6.31609393       7.09687496       8.64864051       0.11140069       1.80660700      -0.61494498       0.02003833       0.10532810      -0.25002275       0.00441801
H        9.25907686       8.20822583       4.93324722       0.11199097      -0.02118085      -0.02048579      -0.04855159       0.12451679       0.16731041       0.36317513
H        4.25326512       8.61193461       5.06391030      -0.25151628       0.04859376      -0.00607237      -0.10496552      -0.11190735       0.16394458       0.38627013
18
Lattice="15.099991252438835 0.0 0.0 0.0 15.099991252438835 0.0 0.0 0.0 15.099991252438835" Properties=species:S:1:pos:R:3:momenta:R:3:forces:R:3:charge:R:1 energy=-1059.8217044784972 free_energy=-1059.8217044784972 dipole="-0.8576396265401054 0.2833381595183151 -0.3156853686399538" stress="0.0 0.0 0.0 0.0 0.0 0.0 0.0 0.0 0.0" pbc="T T T"
H        9.66306227       7.14062024       9.19633232      -0.15528412       0.04727810       0.11387875       0.01738337      -0.06384378      -0.07212448       0.06590495
C        8.72613412       7.76885816       7.36968007      -0.35188726      -0.78094395      -0.01722969      -0.06943710       0.01588354      -0.04489795      -0.05626537
C       10.05924598       7.81599337       6.68838151      -0.58619398       1.29144228      -0.48384472       0.00441200       0.03344663       0.01557278       0.58533233
H        7.54232883       6.59587047      10.32906040       0.21133799       0.15221100      -0.01651178      -0.04675696      -0.01438432       0.03235343       0.04695679
O       10.08406393       8.16313237       5.39471951      -1.27460111      -0.94910514      -0.49095263      -0.01226192      -0.01778818      -0.09413856      -0.49395469
C        6.32214679       7.69595922       7.36115770       0.43906893      -0.87126538       0.38433658      -0.00913030      -0.01397843      -0.02297737      -0.03050440
C        5.02103070       7.82613778       6.65415566       0.60586745       0.85617226      -1.18766168      -0.00032767      -0.05077785      -0.03653835       0.58064635
O        5.11730252       8.55078706       5.53332718      -0.17520405      -1.06785904       0.37148159      -0.00331213       0.07065046      -0.08451174      -0.51341017
O        3.99050209       7.31729654       7.00816538      -0.98698615      -0.15956586       0.08567430       0.08438991       0.06746244       0.07686970      -0.52273721
O       11.05935714       7.49988011       7.26603390       1.49854153       0.13274518       1.63460782       0.22875651       0.08883959       0.08207899      -0.49944970
C        8.71819264       7.28689162       8.68388892       0.22340477      -0.41607524       0.35087515       0.05960975       0.04743871      -0.04976564       0.01035384
H        5.41020772       6.76901424       9.06699877      -0.11105871       0.26798065       0.26391244      -0.15698779       0.08266071       0.03096410       0.06252253
H        7.47888077       8.55173771       5.77061298      -0.06162498       0.04723479       0.31765563       0.07898295      -0.18390126       0.03869389       0.04564521
C        7.51823077       8.05960891       6.74041078       0.40453555       0.09170344      -0.83757291      -0.06654907      -0.05572504       0.02565827      -0.01123687
C        7.52749960       6.98663657       9.31948756       0.34820877      -0.47597299       0.15285429       0.07598983      -0.08472371       0.00293068      -0.02166612
C        6.33498910       7.11843448       8.62949993       0.11140069       1.80660700      -0.61494498      -0.01681769      -0.01009356       0.03496007       0.00386549
H        9.22685244       8.24049443       4.95757477       0.11199097      -0.02118085      -0.02048579      -0.07557469       0.07708490       0.10868811       0.36190619
H        4.24553888       8.58454327       5.11037785      -0.25151628       0.04859376      -0.00607237      -0.09236899       0.01174913      -0.04381594       0.38609086
18
Lattice="15.099991252438835 0.0 0.0 0.0 15.099991252438835 0.0 0.0 0.0 15.099991252438835" Properties=species:S:1:pos:R:3:momenta:R:3:forces:R:3:charge:R:1 energy=-1059.8640021227568 free_energy=-1059.8640021227568 dipole="-0.8767079681631613 0.2604005915585201 -0.27546894116236953" stress="0.0 0.0 0.0 0.0 0.0 0.0 0.0 0.0 0.0" pbc="T T T"
H        9.67363788       7.10007288       9.16668024      -0.15528412       0.04727810       0.11387875       0.03327794      -0.02153997       0.05145217       0.06648580
C        8.72940829       7.74473485       7.36398004      -0.35188726      -0.78094395      -0.01722969       0.18793140      -0.04252532       0.06505545      -0.05689401
C       10.07081459       7.83675773       6.69629465      -0.58619398       1.29144228      -0.48384472       0.11385941       0.00049221       0.03899013       0.58331217
H        7.54129828       6.58251929      10.32779634       0.21133799       0.15221100      -0.01651178      -0.03113897      -0.02184123      -0.04076845       0.04740839
O       10.06271809       8.13519245       5.38750023      -1.27460111      -0.94910514      -0.49095263      -0.00385391       0.02874837       0.14752934      -0.49198802
C        6.32785304       7.68462009       7.35040505       0.43906893      -0.87126538       0.38433658       0.01438078      -0.02803800      -0.03157860      -0.02868244
C        5.03473958       7.84126039       6.63964096       0.60586745       0.85617226      -1.18766168      -0.09028898       0.00547343       0.03388786       0.57974115
O        5.10388694       8.55766627       5.50745579      -0.17520405      -1.06785904       0.37148159      -0.00218863      -0.08773023       0.07661066      -0.51329449
O        4.00518959       7.35682856       7.02609487      -0.98698615      -0.15956586       0.08567430      -0.15519703      -0.01777386       0.04439842      -0.52367210
O       11.08497176       7.59959163       7.29257068       1.49854153       0.13274518       1.63460782      -0.06824623       0.11367865      -0.16250130      -0.49863423
C        8.72294217       7.26638189       8.67525932       0.22340477      -0.41607524       0.35087515      -0.04100732      -0.12510433       0.02733385       0.00998577
H        5.38431882       6.83878954       9.08212615      -0.11105871       0.26798065       0.26391244       0.08036153       0.04125815      -0.02639854       0.06353142
H        7.52807401       8.45499216       5.73806480      -0.06162498       0.04723479       0.31765563      -0.15821065      -0.02676227      -0.11123052       0.04384546
C        7.52616371       8.01069351       6.72565315       0.40453555       0.09170344      -0.83757291       0.10912679      -0.01534420      -0.02222662      -0.01186240
C        7.53055744       6.96252528       9.31216698       0.34820877      -0.47597299       0.15285429      -0.07972627       0.03156733      -0.03051236      -0.02081469
C        6.33175664       7.12296731       8.63153842       0.11140069       1.80660700      -0.61494498      -0.03174213       0.12129323      -0.01135549       0.00497573
H        9.17697789       8.29920218       5.03475499       0.11199097      -0.02118085      -0.02048579       0.04658234      -0.00244871      -0.03152248       0.35981632
H        4.21025758       8.57710055       5.12188251      -0.25151628       0.04859376      -0.00607237       0.07607993       0.04659672      -0.01716354       0.38674017
18
Lattice="15.099991252438835 0.0 0.0 0.0 15.099991252438835 0.0 0.0 0.0 15.099991252438835" Properties=species:S:1:pos:R:3:momenta:R:3:forces:R:3:charge:R:1 energy=-1059.8835084418986 free_energy=-1059.8835084418986 dipole="-0.8920770896261092 0.24207887136834202 -0.276970660719047" stress="0.0 0.0 0.0 0.0 0.0 0.0 0.0 0.0 0.0" pbc="T T T"
H        9.67906569       7.06998629       9.16966573      -0.15528412       0.04727810       0.11387875      -0.06273517      -0.05119095       0.02625220       0.06557013
C        8.74511509       7.72394296       7.36687546      -0.35188726      -0.78094395      -0.01722969      -0.08194745      -0.02650460      -0.06666218      -0.05706452
C       10.08675201       7.85289029       6.70480562      -0.58619398       1.29144228      -0.48384472      -0.05330171       0.03094956      -0.04790299       0.58467483
H        7.52688279       6.56950986      10.31875922       0.21133799       0.15221100      -0.01651178      -0.04387397       0.00291928      -0.02174948       0.04712458
O       10.05415045       8.14042244       5.39710847      -1.27460111      -0.94910514      -0.49095263       0.05662290       0.11384910      -0.05530040      -0.49288377
C        6.33158987       7.67697381       7.33543501       0.43906893      -0.87126538       0.38433658       0.01774351      -0.02308724       0.05331308      -0.02918850
C        5.02112426       7.83928964       6.64536603       0.60586745       0.85617226      -1.18766168       0.06005499      -0.01585657       0.03992105       0.58051730
O        5.10022368       8.54294424       5.50882343      -0.17520405      -1.06785904       0.37148159      -0.00074736      -0.03644863       0.00223669      -0.51224597
O        3.98654075       7.37779515       7.04918364      -0.98698615      -0.15956586       0.08567430       0.04952676       0.05578232       0.00653754      -0.52225883
O       11.11569836       7.66612138       7.28821452       1.49854153       0.13274518       1.63460782      -0.01049034       0.01038553       0.05363678      -0.49782136
C        8.72700942       7.23319464       8.67401308       0.22340477      -0.41607524       0.35087515       0.01119215       0.04892704      -0.00092926       0.00963554
H        5.38304248       6.88449157       9.08504368      -0.11105871       0.26798065       0.26391244      -0.01252270       0.04499896       0.01473547       0.06330084
H        7.51646597       8.39555180       5.70812928      -0.06162498       0.04723479       0.31765563       0.01598675      -0.03766536       0.02660378       0.04364942
C        7.54100684       7.98002676       6.71218236       0.40453555       0.09170344      -0.83757291      -0.05509315      -0.04512377       0.00154976      -0.01243321
C        7.52433752       6.95770605       9.30626512       0.34820877      -0.47597299       0.15285429       0.04735387      -0.00866981      -0.00140855      -0.02067587
C        6.32991163       7.14997409       8.62820792       0.11140069       1.80660700      -0.61494498       0.03432190      -0.05479348       0.04599319       0.00397369
H        9.16581049       8.32419318       5.06126074       0.11199097      -0.02118085      -0.02048579       0.03833222      -0.04040860      -0.04152628       0.35923205
H        4.21083900       8.58688245       5.12052586      -0.25151628       0.04859376      -0.00607237      -0.01042321       0.03193723      -0.03530039       0.38689367
18
Lattice="15.099991252438835 0.0 0.0 0.0 15.099991252438835 0.0 0.0 0.0 15.099991252438835" Properties=species:S:1:pos:R:3:momenta:R:3:forces:R:3:charge:R:1 energy=-1059.8951899227427 free_energy=-1059.8951899227427 dipole="-0.8954681321025539 0.1963807762362761 -0.295695010035529" stress="0.0 0.0 0.0 0.0 0.0 0.0 0.0 0.0 0.0" pbc="T T T"
H        9.66544784       7.03220523       9.18126919      -0.15528412       0.04727810       0.11387875       0.05532133       0.04271402      -0.07381014       0.06507639
C        8.74495312       7.69632198       7.35140466      -0.35188726      -0.78094395      -0.01722969       0.02260348       0.00332666       0.04463582      -0.05639459
C       10.08719011       7.87534437       6.69862806      -0.58619398       1.29144228      -0.48384472       0.02476246       0.00276456       0.05249610       0.58379288
H        7.50866563       6.55920740      10.31193765       0.21133799       0.15221100      -0.01651178       0.08897957       0.01296709       0.05627445       0.04721061
O       10.06726420       8.19032378       5.39623994      -1.27460111      -0.94910514      -0.49095263      -0.02781329       0.05289893       0.05483889      -0.49180239
C        6.33424430       7.66310463       7.33753881       0.43906893      -0.87126538       0.38433658      -0.03899926      -0.00705035      -0.05580234      -0.02911257
C        5.02316043       7.83923533       6.65592304       0.60586745       0.85617226      -1.18766168      -0.04211067       0.01184859      -0.04281087       0.58089754
O        5.10535713       8.52102847       5.50566603      -0.17520405      -1.06785904       0.37148159       0.03604488       0.02133102      -0.03705021      -0.51305922
O        3.98298295       7.40841228       7.07734602      -0.98698615      -0.15956586       0.08567430       0.00029491       0.03463057       0.03452560      -0.52204091
O       11.11249012       7.72015521       7.29884433       1.49854153       0.13274518       1.63460782      -0.01132016      -0.00062520       0.00874614      -0.49809331
C        8.72948592       7.21966373       8.66684724       0.22340477      -0.41607524       0.35087515      -0.02712119      -0.07135303      -0.02400502       0.01075935
H        5.38129740       6.93112038       9.09881668      -0.11105871       0.26798065       0.26391244      -0.03231703      -0.03007541       0.06958196       0.06350885
H        7.51140296       8.34071730       5.68955236      -0.06162498       0.04723479       0.31765563       0.01789193      -0.02674154      -0.00277216       0.04374371
C        7.53912948       7.94144127       6.69908296       0.40453555       0.09170344      -0.83757291       0.01330728       0.00261466      -0.00876106      -0.01267547
C        7.52841935       6.95185089       9.30336938       0.34820877      -0.47597299       0.15285429      -0.05854736      -0.03438636       0.00876618      -0.02101091
C        6.33379552       7.15484695       8.63523828       0.11140069       1.80660700      -0.61494498      -0.07243520       0.03232781      -0.04044399       0.00365770
H        9.17313831       8.32582047       5.05453332       0.11199097      -0.02118085      -0.02048579       0.02119916      -0.01269998      -0.09462973       0.35905356
H        4.21714153       8.60109691       5.11762723      -0.25151628       0.04859376      -0.00607237       0.03025916      -0.03449204       0.05022040       0.38648877
18
Lattice="15.099991252438835 0.0 0.0 0.0 15.099991252438835 0.0 0.0 0.0 15.099991252438835" Properties=species:S:1:pos:R:3:momenta:R:3:forces:R:3:charge:R:1 energy=-1059.9053489914686 free_energy=-1059.9053489914686 dipole="-0.8846743214161968 0.13187607724850803 -0.3330783998812098" stress="0.0 0.0 0.0 0.0 0.0 0.0 0.0 0.0 0.0" pbc="T T T"
H        9.66419993       7.01053227       9.16524171      -0.15528412       0.04727810       0.11387875       0.00427595       0.00558369      -0.03264076       0.06483464
C        8.74202481       7.66912609       7.34410949      -0.35188726      -0.78094395      -0.01722969      -0.00866611      -0.01116399      -0.01365753      -0.05575595
C       10.08338005       7.89963481       6.70636005      -0.58619398       1.29144228      -0.48384472      -0.02659941       0.02180257       0.01029043       0.58440033
H        7.51898219       6.55781860      10.31663406       0.21133799       0.15221100      -0.01651178      -0.00172424       0.01407373      -0.00838198       0.04691382
O       10.07206642       8.25603566       5.41315439      -1.27460111      -0.94910514      -0.49095263       0.01536406      -0.01110901       0.03298608      -0.49316678
C        6.33128007       7.64459411       7.33170531       0.43906893      -0.87126538       0.38433658       0.00601969      -0.01480393       0.04264853      -0.02945134
C        5.02400282       7.84400231       6.65731936       0.60586745       0.85617226      -1.18766168      -0.00638774       0.02056163       0.02005368       0.58068775
O        5.11747013       8.50288579       5.49489820      -0.17520405      -1.06785904       0.37148159      -0.01563747      -0.01936583       0.00274191      -0.51302945
O        3.97787958       7.45562325       7.10414894      -0.98698615      -0.15956586       0.08567430      -0.06943816       0.04677081      -0.04325955      -0.52285711
O       11.10616606       7.76880515       7.31650106       1.49854153       0.13274518       1.63460782       0.00156987      -0.00296112      -0.00408316      -0.49784257
C        8.72211500       7.18732861       8.65678458       0.22340477      -0.41607524       0.35087515       0.01436525       0.00633873      -0.00879532       0.01009388
H        5.37288434       6.96665919       9.12893494      -0.11105871       0.26798065       0.26391244       0.01870701       0.00072226      -0.04614385       0.06362806
H        7.51689256       8.28304303       5.67051895      -0.06162498       0.04723479       0.31765563      -0.01470911       0.00219188      -0.00328068       0.04367675
C        7.53780108       7.90392423       6.68732070       0.40453555       0.09170344      -0.83757291      -0.01100593      -0.01456595       0.00802707      -0.01204273
C        7.51983121       6.93554469       9.30040943       0.34820877      -0.47597299       0.15285429       0.04662816       0.00939704       0.00942738      -0.02128742
C        6.32245776       7.16101056       8.64071938       0.11140069       1.80660700      -0.61494498       0.04456085      -0.04229908       0.03000934       0.00458709
H        9.19099227       8.32117719       5.01961478       0.11199097      -0.02118085      -0.02048579       0.02680462      -0.00558062       0.02959607       0.36005282
H        4.22514002       8.60415100       5.12548981      -0.25151628       0.04859376      -0.00607237      -0.02412729      -0.00559282      -0.02553765       0.38655820
18
Lattice="15.099991252438835 0.0 0.0 0.0 15.099991252438835 0.0 0.0 0.0 15.099991252438835" Properties=species:S:1:pos:R:3:momenta:R:3:forces:R:3:charge:R:1 energy=-1059.9078975123514 free_energy=-1059.9078975123514 dipole="-0.8751056600556093 0.11111591527905594 -0.33886005678829534" stress="0.0 0.0 0.0 0.0 0.0 0.0 0.0 0.0 0.0" pbc="T T T"
H        9.67034886       7.00616458       9.15283054      -0.15528412       0.04727810       0.11387875       0.01878933       0.00227892       0.00234623       0.06518085
C        8.73926870       7.65995583       7.33912692      -0.35188726      -0.78094395      -0.01722969      -0.02343488       0.00379385      -0.00285043      -0.05611940
C       10.08096154       7.90787766       6.71142357      -0.58619398       1.29144228      -0.48384472       0.01040638      -0.01959997      -0.01066134       0.58450329
H        7.52492824       6.56023848      10.32034086       0.21133799       0.15221100      -0.01651178       0.01238034       0.00428031      -0.00523869       0.04708187
O       10.07734961       8.27352270       5.42241353      -1.27460111      -0.94910514      -0.49095263       0.00905714       0.00267838      -0.03070052      -0.49261518
C        6.32779541       7.63665040       7.33417943       0.43906893      -0.87126538       0.38433658      -0.01585229       0.00156351      -0.02359491      -0.02959467
C        5.01762111       7.84968809       6.66111621       0.60586745       0.85617226      -1.18766168      -0.00538811      -0.01815124      -0.00674715       0.58031985
O        5.11825558       8.49419391       5.49076741      -0.17520405      -1.06785904       0.37148159       0.00440164       0.00068960      -0.00419505      -0.51311726
O        3.96187198       7.48290012       7.10446676      -0.98698615      -0.15956586       0.08567430       0.02534375       0.02871008       0.03982357      -0.52253469
O       11.10213306       7.78202046       7.32522749       1.49854153       0.13274518       1.63460782       0.01221522       0.00011378       0.04381120      -0.49838928
C        8.72468034       7.18007385       8.65183476       0.22340477      -0.41607524       0.35087515       0.00745657       0.00528097       0.01028245       0.01004956
H        5.37476258       6.97328955       9.12933179      -0.11105871       0.26798065       0.26391244       0.00588694      -0.03166455       0.01913157       0.06327185
H        7.51306296       8.26724698       5.66594607      -0.06162498       0.04723479       0.31765563      -0.02318230       0.00300242       0.00798111       0.04367273
C        7.53337791       7.89071278       6.68404869       0.40453555       0.09170344      -0.83757291      -0.01522961       0.00588263      -0.00573820      -0.01162509
C        7.52607464       6.93144992       9.30200642       0.34820877      -0.47597299       0.15285429      -0.01427662      -0.00335936      -0.01220309      -0.02098069
C        6.32703615       7.15560925       8.64417125       0.11140069       1.80660700      -0.61494498      -0.01025222       0.01355858      -0.02262369       0.00415139
H        9.20120336       8.31898233       5.01717356       0.11199097      -0.02118085      -0.02048579      -0.00794835       0.00672552       0.01582589       0.36023525
H        4.22483427       8.60131967       5.12345992      -0.25151628       0.04859376      -0.00607237       0.00962706      -0.00578342      -0.01464897       0.38650961
18
Lattice="15.099991252438835 0.0 0.0 0.0 15.099991252438835 0.0 0.0 0.0 15.099991252438835" Properties=species:S:1:pos:R:3:momenta:R:3:forces:R:3:charge:R:1 energy=-1059.9092462702492 free_energy=-1059.9092462702492 dipole="-0.8716135632653379 0.10014454344513765 -0.35043950798993406" stress="0.0 0.0 0.0 0.0 0.0 0.0 0.0 0.0 0.0" pbc="T T T"
H        9.67662547       7.00944586       9.14589607      -0.15528412       0.04727810       0.11387875      -0.03254857       0.00784984       0.00270251       0.06569588
C        8.73606502       7.65935877       7.33578925      -0.35188726      -0.78094395      -0.01722969       0.03435318       0.01002698      -0.01124563      -0.05663689
C       10.08203822       7.90634345       6.71300820      -0.58619398       1.29144228      -0.48384472       0.00854106       0.01230989       0.01878879       0.58398999
H        7.53108907       6.56434933      10.31839953       0.21133799       0.15221100      -0.01651178      -0.00674222      -0.00906087       0.00588287       0.04693248
O       10.08359519       8.27351161       5.42355769      -1.27460111      -0.94910514      -0.49095263      -0.01038492      -0.02320515       0.03044375      -0.49212152
C        6.32389142       7.63285912       7.33241800       0.43906893      -0.87126538       0.38433658       0.01495691      -0.00148832       0.00723829      -0.02944814
C        5.01435430       7.85142972       6.66150644       0.60586745       0.85617226      -1.18766168      -0.00532115       0.03104182       0.01798630       0.58052751
O        5.11787658       8.48876439       5.48699159      -0.17520405      -1.06785904       0.37148159      -0.00232457      -0.03269193      -0.00826326      -0.51331766
O        3.95741189       7.50263589       7.11563990      -0.98698615      -0.15956586       0.08567430      -0.00065345       0.00832322       0.00958511      -0.52224574
O       11.09864015       7.78234579       7.33604180       1.49854153       0.13274518       1.63460782      -0.02945759       0.00470258      -0.03574439      -0.49822867
C        8.72686277       7.18187133       8.64973999       0.22340477      -0.41607524       0.35087515      -0.01421201       0.00139247      -0.02697132       0.01003518
H        5.37898324       6.95968648       9.13215361      -0.11105871       0.26798065       0.26391244       0.00289678      -0.00768046      -0.00115322       0.06316495
H        7.50239507       8.26850825       5.66606746      -0.06162498       0.04723479       0.31765563       0.00974915       0.00684148      -0.01332466       0.04379835
C        7.52876734       7.88994185       6.68271015       0.40453555       0.09170344      -0.83757291       0.01622484      -0.00113497      -0.00658195      -0.01183201
C        7.52826328       6.93152494       9.29896007       0.34820877      -0.47597299       0.15285429       0.00434017       0.00383963       0.00268721      -0.02113277
C        6.32730310       7.15189831       8.64238463       0.11140069       1.80660700      -0.61494498      -0.00209725      -0.01891419       0.00839984       0.00433060
H        9.20475700       8.31993859       5.02369303       0.11199097      -0.02118085      -0.02048579       0.00605301       0.01046420      -0.00530200       0.36005945
H        4.22664720       8.59748290       5.11490775      -0.25151628       0.04859376      -0.00607237       0.00662662      -0.00261625       0.00487178       0.38642903
18
Lattice="15.099991252438835 0.0 0.0 0.0 15.099991252438835 0.0 0.0 0.0 15.099991252438835" Properties=species:S:1:pos:R:3:momenta:R:3:forces:R:3:charge:R:1 energy=-1059.9101454188865 free_energy=-1059.9101454188865 dipole="-0.8684827776341127 0.09440849282173906 -0.35765615519345384" stress="0.0 0.0 0.0 0.0 0.0 0.0 0.0 0.0 0.0" pbc="T T T"
H        9.67213540       7.00810068       9.14201500      -0.15528412       0.04727810       0.11387875       0.01361740       0.00611223       0.00979301       0.06545975
C        8.73609544       7.65604121       7.33028630      -0.35188726      -0.78094395      -0.01722969      -0.02894003      -0.00853739       0.01940495      -0.05684715
C       10.08205699       7.91170254       6.71592838      -0.58619398       1.29144228      -0.48384472      -0.02505171       0.00490076      -0.02017083       0.58454695
H        7.53384038       6.56273823      10.31769508       0.21133799       0.15221100      -0.01651178      -0.00260374      -0.00611668      -0.01725655       0.04696917
O       10.08590856       8.27749572       5.42721825      -1.27460111      -0.94910514      -0.49095263       0.01082919       0.00437887      -0.02633441      -0.49217023
C        6.32444274       7.62842333       7.33130269       0.43906893      -0.87126538       0.38433658      -0.00107056       0.00347884       0.00727422      -0.02971227
C        5.01309906       7.85812111       6.66722416       0.60586745       0.85617226      -1.18766168       0.01041554      -0.02991383      -0.00979295       0.58059077
O        5.11953654       8.47181834       5.48068099      -0.17520405      -1.06785904       0.37148159       0.00732845      -0.00220285      -0.00529405      -0.51345600
O        3.95448020       7.53044032       7.13289893      -0.98698615      -0.15956586       0.08567430      -0.00550920       0.02788516       0.01474404      -0.52226297
O       11.09607034       7.79561317       7.34308510       1.49854153       0.13274518       1.63460782       0.03596487      -0.00485049       0.00626418      -0.49834226
C        8.72447978       7.17824933       8.64337855       0.22340477      -0.41607524       0.35087515       0.00694545       0.00034398       0.02904448       0.00994990