18
Lattice="15.099991252438835 0.0 0.0 0.0 15.099991252438835 0.0 0.0 0.0 15.099991252438835" Properties=species:S:1:pos:R:3:momenta:R:3:forces:R:3:charge:R:1 energy=-1059.6355640145161 free_energy=-1059.6355640145161 dipole="-0.7922266689240397 0.5516042668532537 -0.19496517038329414" stress="0.0 0.0 0.0 0.0 0.0 0.0 0.0 0.0 0.0" pbc="T T T"
H        9.58544391       6.59397063       8.97242889       0.01295289      -0.19107262      -0.45399974       0.11539469       0.16014972       0.02573197       0.06364451
C        8.73232883       7.56647692       7.24764979       0.22972552      -0.21221115      -0.42710445      -0.24136813      -0.17381760      -0.02244092      -0.05948550
C       10.16202918       7.84482521       6.81709514      -0.14771794       0.58438161      -0.18488280      -0.19744260       0.16474859      -0.02258893       0.58517137
H        7.32698266       6.25917892      10.08013131       0.11125199      -0.14868836       0.07381021       0.40660060      -0.33389479       0.43560110       0.04801881
O       10.39050744       9.03789066       6.24229137      -0.25439054      -0.50572208       2.85438521      -0.50603595      -0.09970862      -0.02850383      -0.48780197
C        6.30192582       7.60984503       7.19734858       0.09991036       0.28702204       1.10881118       0.18002539      -0.03220773      -0.14749272      -0.03227786
C        4.94873461       7.91072281       6.63105217       0.97708099       0.02586451      -0.26278587       0.08112115       0.04954259      -0.35277268       0.58402649
O        4.98736343       8.29352798       5.34539427      -0.53938495      -0.71575024      -1.13677503       0.34190414       0.19956539      -0.01194029      -0.51481159
O        3.93227880       7.82321120       7.26735229       0.07123539       0.70055695       1.58362027       0.10345392       0.10364748      -0.14700717      -0.51935967
O       11.05666912       7.09770440       7.07511675      -0.02825933       0.08821205      -0.56364219       0.07003871      -0.24866403      -0.02868559      -0.49236118
C        8.67121849       6.92972590       8.50026023       0.51752703       0.20357712      -0.02906919      -0.16323736       0.05308318      -0.10894289       0.00549990
H        5.35861265       6.85871395       8.98289448      -0.47022972      -0.19531840      -0.22968837      -0.31455731       0.09347815      -0.08832567       0.06270676
H        7.49901758       8.13583348       5.50269251      -0.36215314       0.36820793      -0.15849302       0.29060617       0.25145121       0.47362988       0.05066976
C        7.53495689       7.85519560       6.56209979       0.54933964      -1.10226887       0.23718466      -0.05324359      -0.25625591      -0.00733512      -0.01384448
C        7.45183698       6.69113909       9.10921711       0.16973889      -1.19355297      -0.98415008       0.04308211       0.20915698      -0.25801366      -0.02398488
C        6.28750051       7.05578720       8.47083783      -0.54039617       1.65070169      -0.94436119      -0.10311954       0.02660361       0.11148643       0.00009611
H        9.57880519       9.56053681       6.17740157      -0.16781374       0.08653666      -0.32527272       0.06001560       0.08657263      -0.10358111       0.35903933
H        4.14770601       8.64134491       5.00385871      -0.22841719       0.26952413      -0.15758688      -0.11323802      -0.25345085       0.28118119       0.38505407
18
Lattice="15.099991252438835 0.0 0.0 0.0 15.099991252438835 0.0 0.0 0.0 15.099991252438835" Properties=species:S:1:pos:R:3:momenta:R:3:forces:R:3:charge:R:1 energy=-1059.7921742115716 free_energy=-1059.7921742115716 dipole="-0.7748665872828463 0.533116940740901 -0.15165446409143632" stress="0.0 0.0 0.0 0.0 0.0 0.0 0.0 0.0 0.0" pbc="T T T"
H        9.59120499       6.64023326       8.97135776       0.01295289      -0.19107262      -0.45399974      -0.02174466       0.00262304       0.14101136       0.06303751
C        8.71618682       7.52609998       7.25046955       0.22972552      -0.21221115      -0.42710445       0.00042514       0.00290409       0.12393826      -0.05669162
C       10.12616065       7.82879715       6.81387048      -0.14771794       0.58438161      -0.18488280       0.05284146      -0.17028879      -0.06541946       0.58724245
H        7.42469326       6.21994399      10.10651896       0.11125199      -0.14868836       0.07381021      -0.08213097       0.06576369       0.00608920       0.04648476
O       10.32521979       9.01532255       6.22567255      -0.25439054      -0.50572208       2.85438521       0.01571402       0.05770631      -0.13332882      -0.49020735
C        6.30588262       7.58368586       7.19675134       0.09991036       0.28702204       1.10881118       0.07781356      -0.04411148       0.07263544      -0.03214443
C        4.98740738       7.92016360       6.59237139       0.97708099       0.02586451      -0.26278587       0.18440416       0.05797465       0.10018318       0.58032258
O        5.03909783       8.34738758       5.32682247      -0.53938495      -0.71575024      -1.13677503       0.07463926      -0.00140842       0.06736885      -0.50959068
O        3.95788309       7.84811330       7.21028500       0.07123539       0.70055695       1.58362027      -0.15869974       0.00171622      -0.10361860      -0.52665010
O       11.03444861       7.08303561       7.05484549      -0.02825933       0.08821205      -0.56364219      -0.17436606       0.15894202      -0.12516444      -0.49653650
C        8.65432556       6.92272346       8.50637547       0.51752703       0.20357712      -0.02906919      -0.02593053      -0.05676368       0.09690723       0.00313941
H        5.30096555       6.88652763       8.95530081      -0.47022972      -0.19531840      -0.22968837       0.00459742       0.04102131       0.03103064       0.06448827
H        7.56234658       8.20785508       5.56538413      -0.36215314       0.36820793      -0.15849302      -0.01822550       0.09843086      -0.07967660       0.04895687
C        7.53382292       7.81182444       6.57164687       0.54933964      -1.10226887       0.23718466       0.06621876       0.18434606       0.01716697      -0.01160186
C        7.43975384       6.69580806       9.13236028       0.16973889      -1.19355297      -0.98415008       0.02531773      -0.10443982      -0.03993402      -0.02163976
C        6.26544799       7.05502842       8.48999929      -0.54039617       1.65070169      -0.94436119       0.11761210      -0.16093091      -0.02183490       0.00138061
H        9.55411460       9.59202110       6.15360199      -0.16781374       0.08653666      -0.32527272      -0.10588207      -0.12533726       0.01728459       0.36356679
H        4.13495604       8.58105967       5.06148894      -0.22841719       0.26952413      -0.15758688      -0.03260409      -0.00814788      -0.10463890       0.38644305
18
Lattice="15.099991252438835 0.0 0.0 0.0 15.099991252438835 0.0 0.0 0.0 15.099991252438835" Properties=species:S:1:pos:R:3:momenta:R:3:forces:R:3:charge:R:1 energy=-1059.8278641670217 free_energy=-1059.8278641670217 dipole="-0.7642391709656182 0.5034247603093993 -0.08101258262752038" stress="0.0 0.0 0.0 0.0 0.0 0.0 0.0 0.0 0.0" pbc="T T T"
H        9.58775012       6.65217792       9.02111363       0.01295289      -0.19107262      -0.45399974      -0.02757670       0.00615714      -0.03110414       0.06236837
C        8.71705432       7.53011070       7.27236043       0.22972552      -0.21221115      -0.42710445       0.02331440       0.01156469       0.05474232      -0.05573267
C       10.10832269       7.82510011       6.79062579      -0.14771794       0.58438161      -0.18488280       0.07029603       0.03772131       0.03809706       0.58618662
H        7.42059920       6.22095750      10.13031748       0.11125199      -0.14868836       0.07381021      -0.06856622      -0.00702706      -0.10261742       0.04708142
O       10.29108740       9.00447742       6.17910204      -0.25439054      -0.50572208       2.85438521      -0.07087717      -0.03039546      -0.09456156      -0.49055464
C        6.32106833       7.58199749       7.20576240       0.09991036       0.28702204       1.10881118      -0.12075691       0.08839926       0.04749762      -0.03130624
C        5.00814106       7.93828951       6.59767142       0.97708099       0.02586451      -0.26278587      -0.11367344      -0.05006989      -0.06969711       0.57861476
O        5.07241656       8.37275312       5.33471097      -0.53938495      -0.71575024      -1.13677503       0.06213290       0.03327140      -0.06205053      -0.51010836
O        3.95156188       7.85145697       7.16998507       0.07123539       0.70055695       1.58362027       0.12226950      -0.05780974       0.13765764      -0.52770201
O       11.01963946       7.08332352       7.01158677      -0.02825933       0.08821205      -0.56364219       0.12205858      -0.11239985      -0.05919462      -0.49541653
C        8.65781685       6.90935984       8.52361822       0.51752703       0.20357712      -0.02906919       0.02023489       0.01139789       0.01777089       0.00488941
H        5.30020211       6.90023513       8.95378300      -0.47022972      -0.19531840      -0.22968837       0.08071296      -0.11242687      -0.02449382       0.06427178
H        7.57528269       8.25910112       5.58314508      -0.36215314       0.36820793      -0.15849302       0.00378024       0.05549413       0.11611385       0.05101786
C        7.54620459       7.84621303       6.58768526       0.54933964      -1.10226887       0.23718466      -0.05643364      -0.09406938       0.09615848      -0.01247450
C        7.44196089       6.65952805       9.13699648       0.16973889      -1.19355297      -0.98415008      -0.04148084       0.04879670       0.02955885      -0.02019411
C        6.27295173       7.01640783       8.48381439      -0.54039617       1.65070169      -0.94436119      -0.00958868       0.12455938       0.01547818       0.00095724
H        9.50563322       9.56244244       6.14861496      -0.16781374       0.08653666      -0.32527272      -0.12919069       0.02041228      -0.03834132       0.36160413
H        4.15622500       8.55169902       5.05422940      -0.22841719       0.26952413      -0.15758688       0.13334479       0.02642406      -0.07101437       0.38649746
18
Lattice="15.099991252438835 0.0 0.0 0.0 15.099991252438835 0.0 0.0 0.0 15.099991252438835" Properties=species:S:1:pos:R:3:momenta:R:3:forces:R:3:charge:R:1 energy=-1059.8645895442226 free_energy=-1059.8645895442226 dipole="-0.7808229876756889 0.48774512518029184 -0.027029924210012497" stress="0.0 0.0 0.0 0.0 0.0 0.0 0.0 0.0 0.0" pbc="T T T"
H        9.58195757       6.66114479       9.07145350       0.01295289      -0.19107262      -0.45399974       0.08258273      -0.08516125      -0.00549023       0.06057322
C        8.73074517       7.53982060       7.31581829       0.22972552      -0.21221115      -0.42710445       0.01917818      -0.02248629      -0.08022366      -0.05643051
C       10.10589325       7.81805563       6.76682550      -0.14771794       0.58438161      -0.18488280      -0.14700335      -0.00080840      -0.09823393       0.58598837
H        7.38306023       6.20980913      10.12652081       0.11125199      -0.14868836       0.07381021       0.01121018      -0.12608679       0.10945160       0.04699779
O       10.21384768       8.97674368       6.09231017      -0.25439054      -0.50572208       2.85438521      -0.03328508      -0.05106368       0.05457539      -0.49186922
C        6.32279424       7.60736996       7.22819937       0.09991036       0.28702204       1.10881118       0.12585189      -0.00570197      -0.01558051      -0.03047293
C        5.02295167       7.94739775       6.59399898       0.97708099       0.02586451      -0.26278587       0.05900166       0.05116725       0.04448707       0.58037460
O        5.12634831       8.40130855       5.33909244      -0.53938495      -0.71575024      -1.13677503      -0.04109450      -0.08789794       0.03961458      -0.51046530
O        3.96706583       7.83303751       7.15911416       0.07123539       0.70055695       1.58362027      -0.06539257      -0.00658625      -0.11288138      -0.52501429
O       11.02803388       7.07395134       6.92930460      -0.02825933       0.08821205      -0.56364219      -0.03687738       0.11610360      -0.00334433      -0.49205433
C        8.66269748       6.90389166       8.55534072       0.51752703       0.20357712      -0.02906919       0.02268519       0.09619341      -0.00396054       0.00543137
H        5.31220825       6.86317881       8.95360546      -0.47022972      -0.19531840      -0.22968837      -0.14945218      -0.07535845       0.04090668       0.06369140
H        7.59094944       8.33750245       5.65837211      -0.36215314       0.36820793      -0.15849302       0.04230982      -0.03251763       0.00886221       0.04974448
C        7.55751273       7.86827424       6.63672350       0.54933964      -1.10226887       0.23718466       0.06863742       0.11944274      -0.00928574      -0.01355539
C        7.43553250       6.65072565       9.14262518       0.16973889      -1.19355297      -0.98415008       0.04750807       0.10518706       0.06283190      -0.02098640
C        6.27521508       7.01711162       8.48913840      -0.54039617       1.65070169      -0.94436119      -0.08995589      -0.00889837       0.05023108       0.00136266
H        9.41091337       9.51714108       6.12748399      -0.16781374       0.08653666      -0.32527272       0.05739887      -0.06259239      -0.04679328       0.36021714
H        4.22619141       8.53916628       4.99919563      -0.22841719       0.26952413      -0.15758688       0.02669694       0.07706533      -0.03516694       0.38646733
18
Lattice="15.099991252438835 0.0 0.0 0.0 15.099991252438835 0.0 0.0 0.0 15.099991252438835" Properties=species:S:1:pos:R:3:momenta:R:3:forces:R:3:charge:R:1 energy=-1059.8791577606726 free_energy=-1059.8791577606726 dipole="-0.7832901211549406 0.4851385632304954 -0.006905125754963714" stress="0.0 0.0 0.0 0.0 0.0 0.0 0.0 0.0 0.0" pbc="T T T"
H        9.58811469       6.65005645       9.08226795       0.01295289      -0.19107262      -0.45399974      -0.02544837      -0.02409583      -0.04431271       0.06059328
C        8.73371365       7.53880250       7.32835365       0.22972552      -0.21221115      -0.42710445      -0.03159679       0.05428486       0.05992049      -0.05525033
C       10.08917482       7.81248767       6.74413636      -0.14771794       0.58438161      -0.18488280       0.06664590      -0.01107507       0.04876471       0.58601773
H        7.37989096       6.18433069      10.13812156       0.11125199      -0.14868836       0.07381021       0.03637430       0.04283353      -0.05130865       0.04686243
O       10.17806375       8.96117706       6.05720504      -0.25439054      -0.50572208       2.85438521       0.01331060       0.03544483      -0.05097187      -0.49127123
C        6.32913188       7.62075465       7.24577574       0.09991036       0.28702204       1.10881118      -0.05631311       0.03467495       0.08535578      -0.03016380
C        5.03322768       7.95547680       6.59451549       0.97708099       0.02586451      -0.26278587       0.00656575      -0.06992238      -0.00611261       0.58048282
O        5.15346717       8.40058869       5.33868859      -0.53938495      -0.71575024      -1.13677503       0.05286943       0.00298766      -0.01127611      -0.51072719
O        3.96575790       7.82483476       7.13355796       0.07123539       0.70055695       1.58362027      -0.01817566       0.01918280      -0.02515743      -0.52472196
O       11.02551881       7.08451282       6.89545014      -0.02825933       0.08821205      -0.56364219      -0.01113041      -0.04224349       0.02857731      -0.49374488
C        8.66580748       6.91529618       8.57524910       0.51752703       0.20357712      -0.02906919      -0.01833573      -0.04110162       0.02903491       0.00556842
H        5.29754834       6.83421788       8.95181950      -0.47022972      -0.19531840      -0.22968837       0.03899562      -0.01443894      -0.03108749       0.06390839
H        7.60844852       8.36633892       5.68754359      -0.36215314       0.36820793      -0.15849302      -0.02008869      -0.01307855      -0.04505088       0.05002474
C        7.56425741       7.89400725       6.66200260       0.54933964      -1.10226887       0.23718466      -0.04242506      -0.02121669       0.02198261      -0.01479589
C        7.43508280       6.66289069       9.16521015       0.16973889      -1.19355297      -0.98415008      -0.01317799      -0.02002374      -0.00428652      -0.02059853
C        6.26934511       7.01717824       8.50371007      -0.54039617       1.65070169      -0.94436119       0.04765573      -0.00756879       0.04417786       0.00158203
H        9.37405836       9.49422782       6.10373822      -0.16781374       0.08653666      -0.32527272      -0.03727715       0.03816302      -0.05556309       0.35982388
H        4.26330874       8.54845165       4.97777708      -0.22841719       0.26952413      -0.15758688       0.01155162       0.03719344       0.00731369       0.38641007
18
Lattice="15.099991252438835 0.0 0.0 0.0 15.099991252438835 0.0 0.0 0.0 15.099991252438835" Properties=species:S:1:pos:R:3:momenta:R:3:forces:R:3:charge:R:1 energy=-1059.8849579953069 free_energy=-1059.8849579953069 dipole="-0.7707214327379295 0.487204045724053 0.0010674057939337055" stress="0.0 0.0 0.0 0.0 0.0 0.0 0.0 0.0 0.0" pbc="T T T"
H        9.58794049       6.63099868       9.07219237       0.01295289      -0.19107262      -0.45399974       0.01512507      -0.00604048       0.00878293       0.06082838
C        8.73051659       7.55645083       7.34299061       0.22972552      -0.21221115      -0.42710445       0.00468698      -0.00453552      -0.02399882      -0.05556726
C       10.08573219       7.81761480       6.74611728      -0.14771794       0.58438161      -0.18488280      -0.04203765       0.03693454      -0.01286220       0.58590983
H        7.38950507       6.17888501      10.14109431       0.11125199      -0.14868836       0.07381021       0.00466712      -0.01595373       0.01953425       0.04709410
O       10.16820525       8.95742186       6.03880467      -0.25439054      -0.50572208       2.85438521       0.00139046      -0.01924069       0.00446706      -0.49208223
C        6.32490555       7.63313433       7.26469745       0.09991036       0.28702204       1.10881118      -0.00222669      -0.04907578      -0.05282408      -0.03006169
C        5.03416445       7.94855997       6.59360510       0.97708099       0.02586451      -0.26278587      -0.01319266       0.04860709      -0.00646187       0.58022793
O        5.17400772       8.39334367       5.33825238      -0.53938495      -0.71575024      -1.13677503       0.01666692       0.01968953       0.00360178      -0.51136167
O        3.95666724       7.82333694       7.11357379       0.07123539       0.70055695       1.58362027       0.03119226      -0.02533179       0.01163053      -0.52414809
O       11.01842905       7.08457282       6.89512176      -0.02825933       0.08821205      -0.56364219      -0.02879316       0.02353280       0.03224749      -0.49264237
C        8.66480580       6.91720462       8.58163996       0.51752703       0.20357712      -0.02906919       0.01561776       0.01206222      -0.01567251       0.00564162
H        5.29807403       6.81397825       8.94874605      -0.47022972      -0.19531840      -0.22968837      -0.00760295       0.00794678       0.05034146       0.06349092
H        7.60407146       8.36197678       5.69201066      -0.36215314       0.36820793      -0.15849302      -0.03962024      -0.00195878       0.03541823       0.05025483
C        7.55893118       7.90617515       6.67639659       0.54933964      -1.10226887       0.23718466       0.00122855       0.00874498       0.01375188      -0.01456578
C        7.43710382       6.66358845       9.17379088       0.16973889      -1.19355297      -0.98415008       0.00025815      -0.00721696      -0.01540253      -0.02037742
C        6.27071361       7.02058210       8.51749437      -0.54039617       1.65070169      -0.94436119      -0.02493331      -0.00251955      -0.02117293       0.00164225
H        9.36103355       9.48972749       6.07407108      -0.16781374       0.08653666      -0.32527272       0.02875943      -0.02066529      -0.03574284       0.35961478
H        4.28911104       8.56807899       4.97452348      -0.22841719       0.26952413      -0.15758688       0.03881397      -0.00497935       0.00436214       0.38610186
18
Lattice="15.099991252438835 0.0 0.0 0.0 15.099991252438835 0.0 0.0 0.0 15.099991252438835" Properties=species:S:1:pos:R:3:momenta:R:3:forces:R:3:charge:R:1 energy=-1059.8882259816514 free_energy=-1059.8882259816514 dipole="-0.7704128126692681 0.49399535175412884 -0.007217182294972321" stress="0.0 0.0 0.0 0.0 0.0 0.0 0.0 0.0 0.0" pbc="T T T"
H        9.59017154       6.62116066       9.07209551       0.01295289      -0.19107262      -0.45399974      -0.02186326       0.02902950      -0.01652674       0.06125592
C        8.72704711       7.56706817       7.35161600       0.22972552      -0.21221115      -0.42710445      -0.00734017      -0.00860358      -0.00706625      -0.05512674
C       10.07445377       7.82574615       6.74446327      -0.14771794       0.58438161      -0.18488280       0.02526300      -0.02960182       0.01441921       0.58581856
H        7.39671437       6.17265581      10.14286284       0.11125199      -0.14868836       0.07381021      -0.01375649      -0.01544526      -0.00012450       0.04674125
O       10.15872713       8.95022762       6.01628995      -0.25439054      -0.50572208       2.85438521       0.00522383      -0.00513810      -0.00966776      -0.49149102
C        6.32100948       7.62577903       7.27091258       0.09991036       0.28702204       1.10881118       0.01288194       0.01723169       0.04201820      -0.02986651
C        5.04043904       7.95155790       6.59167586       0.97708099       0.02586451      -0.26278587       0.00428948      -0.04831530       0.01371301       0.58036344
O        5.19901786       8.40468565       5.34160853      -0.53938495      -0.71575024      -1.13677503      -0.01631446       0.02412689       0.02758526      -0.51170694
O        3.95903719       7.81700611       7.09969366       0.07123539       0.70055695       1.58362027      -0.04000719       0.01441805      -0.01898508      -0.52398852
O       11.00449986       7.09089853       6.90296940      -0.02825933       0.08821205      -0.56364219       0.04462887       0.01821205       0.02159033      -0.49415918
C        8.66661530       6.91693220       8.58506348       0.51752703       0.20357712      -0.02906919      -0.01972436      -0.00611831      -0.00938306       0.00629547
H        5.29771861       6.80578687       8.96382574      -0.47022972      -0.19531840      -0.22968837       0.01181586       0.00915678       0.00541223       0.06326375
H        7.58891680       8.37125818       5.70856119      -0.36215314       0.36820793      -0.15849302       0.00271086       0.03433398      -0.00944597       0.05026859
C        7.55350244       7.91440772       6.69107919       0.54933964      -1.10226887       0.23718466      -0.00242769      -0.02578889      -0.02990449      -0.01515965
C        7.43818048       6.65841303       9.17505466       0.16973889      -1.19355297      -0.98415008       0.00767847      -0.00698169       0.01934115      -0.02079795
C        6.26705058       7.01363966       8.52366977      -0.54039617       1.65070169      -0.94436119       0.02020665      -0.02417396       0.01984401       0.00218195
H        9.35103374       9.48102350       6.03667387      -0.16781374       0.08653666      -0.32527272       0.00007112       0.00693536      -0.03207374       0.35990465
H        4.31978280       8.57738393       4.96700727      -0.22841719       0.26952413      -0.15758688      -0.01333645       0.01672261      -0.03074582       0.38620293
18
Lattice="15.099991252438835 0.0 0.0 0.0 15.099991252438835 0.0 0.0 0.0 15.099991252438835" Properties=species:S:1:pos:R:3:momenta:R:3:forces:R:3:charge:R:1 energy=-1059.8909452769171 free_energy=-1059.8909452769171 dipole="-0.767914715970371 0.4878605376960064 -0.030177178899663766" stress="0.0 0.0 0.0 0.0 0.0 0.0 0.0 0.0 0.0" pbc="T T T"
H        9.58855624       6.62313552       9.06262107       0.01295289      -0.19107262      -0.45399974       0.03372119       0.00919005       0.01794028       0.06131596
C        8.72231588       7.56785108       7.34841128       0.22972552      -0.21221115      -0.42710445       0.00103597      -0.02043332      -0.00270466      -0.05515692
C       10.07388462       7.82870738       6.74863451      -0.14771794       0.58438161      -0.18488280       0.00605671       0.01337614       0.00081709       0.58592628
H        7.40007862       6.16139770      10.14564003       0.11125199      -0.14868836       0.07381021       0.01379355       0.00743888      -0.01451178       0.04696549
O       10.16090553       8.94257420       6.00370617      -0.25439054      -0.50572208       2.85438521       0.00556353      -0.00947611      -0.01642086      -0.49205245
C        6.31703923       7.61983902       7.27924833       0.09991036       0.28702204       1.10881118      -0.02477258       0.00776716      -0.01885440      -0.03010789
C        5.03763509       7.94675869       6.59451091       0.97708099       0.02586451      -0.26278587      -0.02356985       0.04304524       0.00581826       0.58040081
O        5.20876697       8.41872347       5.35177443      -0.53938495      -0.71575024      -1.13677503       0.00076698      -0.00624307      -0.00670496      -0.51272358
O        3.95031826       7.81169816       7.08934226       0.07123539       0.70055695       1.58362027       0.00323730      -0.03181142       0.00699722      -0.52312442
O       11.00948245       7.10539406       6.92801870      -0.02825933       0.08821205      -0.56364219       0.01140169       0.01245179       0.02792982      -0.49410915
C        8.66300446       6.91581895       8.58122930       0.51752703       0.20357712      -0.02906919       0.01601566      -0.02021666       0.00476462       0.00630826
H        5.30131135       6.80441859       8.98081136      -0.47022972      -0.19531840      -0.22968837      -0.01195238      -0.00834471      -0.01561954       0.06278605
H        7.57388180       8.38209956       5.71453929      -0.36215314       0.36820793      -0.15849302       0.01320413      -0.00526303       0.00013323       0.05008265
C        7.54609378       7.91096642       6.69110841       0.54933964      -1.10226887       0.23718466      -0.00743349       0.01689372       0.01640280      -0.01425453
C        7.44044179       6.65227332       9.17984245       0.16973889      -1.19355297      -0.98415008      -0.01008387      -0.01101247      -0.02314809      -0.02076607
C        6.26748220       7.00545296       8.53160149      -0.54039617       1.65070169      -0.94436119      -0.01656106       0.02867050      -0.00901788       0.00230153
H        9.35502979       9.47648333       5.99643732      -0.16781374       0.08653666      -0.32527272      -0.00828280      -0.03047110      -0.00609086       0.36038648
H        4.33769004       8.59203832       4.95764547      -0.22841719       0.26952413      -0.15758688      -0.00214068       0.00443840       0.03226970       0.38582151
18
Lattice="15.099991252438835 0.0 0.0 0.0 15.099991252438835 0.0 0.0 0.0 15.099991252438835" Properties=species:S:1:pos:R:3:momenta:R:3:forces:R:3:charge:R:1 energy=-1059.8929484244227 free_energy=-1059.8929484244227 dipole="-0.7740683334988783 0.4907352871617022 -0.04742231837247908" stress="0.0 0.0 0.0 0.0 0.0 0.0 0.0 0.0 0.0" pbc="T T T"
H        9.59572800       6.62867580       9.06137227       0.01295289      -0.19107262      -0.45399974      -0.04268420      -0.01659841      -0.00894349       0.06183590
C        8.72022435       7.56314953       7.34553168       0.22972552      -0.21221115      -0.42710445       0.01860265       0.03079381      -0.00239767      -0.05549037
C       10.07591071       7.83176899       6.75321267      -0.14771794       0.58438161      -0.18488280      -0.00647296      -0.00724552       0.00546149       0.58546303
H        7.40571212       6.15524469      10.14058164       0.11125199      -0.14868836       0.07381021      -0.00972581      -0.01103289       0.00502873       0.04673287
O       10.16219761       8.93120857       5.98704672      -0.25439054      -0.50572208       2.85438521      -0.02394577      -0.02185504       0.00595586      -0.49183028
C        6.31031549       7.62397065       7.28437489       0.09991036       0.28702204       1.10881118       0.03991474       0.01602555       0.00846708      -0.03006982
C        5.03146767       7.95130970       6.59880760       0.97708099       0.02586451      -0.26278587       0.02494282      -0.03220431      -0.01215269       0.58062292
O        5.21314435       8.42994561       5.36016698      -0.53938495      -0.71575024      -1.13677503      -0.02701273       0.02844754       0.00849704      -0.51287892
O        3.94163396       7.79807909       7.08227429       0.07123539       0.70055695       1.58362027       0.02063341       0.01061270      -0.00110085      -0.52250109
O       11.01860240       7.12428920       6.95953938      -0.02825933       0.08821205      -0.56364219      -0.01351955       0.01278480       0.02483019      -0.49443179
C        8.66511957       6.90863419       8.57801900       0.51752703       0.20357712      -0.02906919      -0.00672812       0.03296315      -0.01487566       0.00675362