18
Lattice="15.099991252438835 0.0 0.0 0.0 15.099991252438835 0.0 0.0 0.0 15.099991252438835" Properties=species:S:1:pos:R:3:momenta:R:3:forces:R:3:charge:R:1 energy=-1059.577490000341 free_energy=-1059.577490000341 dipole="-0.9322017150984604 0.2989855215934925 -0.24816083219835375" stress="0.0 0.0 0.0 0.0 0.0 0.0 0.0 0.0 0.0" pbc="T T T"
H        9.75489732       7.14125935       9.08632391      -0.22073422       0.38702556      -0.13403308      -0.02537943       0.07622962       0.18554368       0.06586537
C        8.75758834       7.45172799       7.23028281      -0.69386295      -0.32116990      -0.38364147      -0.04323271      -0.10019604       0.06782119      -0.05474277
C       10.08047052       7.80657966       6.62040499      -1.54862684       0.93197101      -1.25542922       0.65145690      -0.28002732       0.21603236       0.58335670
H        7.50658655       6.93151910      10.37050559       0.32726957       0.02103571       0.11688662       0.43194016      -0.31380744      -0.10959107       0.04701807
O       10.05986212       8.71247041       5.63106190      -0.50052463      -1.20710085       1.89048860      -0.03854960      -0.06995875       0.00189125      -0.49115905
C        6.34851913       7.45479647       7.24378294       0.03795882      -0.26872589       0.11607801      -0.35592107      -0.03191560       0.51175235      -0.03452981
C        4.98983503       7.85820108       6.72560999       0.37416077       2.08774562      -0.01435335       1.04733865      -0.21574784      -0.33656530       0.58334020
O        4.98063541       8.54265719       5.56921345      -0.59647424      -0.23570957       0.03219132       0.12985387      -0.50679404      -0.06807924      -0.51478803
O        3.99569455       7.62496887       7.33916918       0.90965483       0.55427821       0.30422884      -0.92169217      -0.19623971       0.30746801      -0.51621858
O       11.11991047       7.37463878       7.05020527       0.65428177       0.10445752       0.53134157      -0.46476759       0.09939656      -0.25157962      -0.50023897
C        8.78549148       7.19582044       8.60926049       0.14305030      -0.40385665      -1.11501550      -0.26900580       0.11723426      -0.31494025       0.00621165
H        5.42993258       6.99758297       9.10795173      -0.08888911       0.48465272      -0.11242778       0.11481371       0.17229863       0.19628346       0.06476527
H        7.49102224       7.53917963       5.45544495       0.17629453       0.06638317      -0.07667835       0.22183981       0.37883366       0.05712818       0.04696396
C        7.54360097       7.49771759       6.54099794       0.17815261      -1.78763469      -0.40969935       0.00674447       0.32599437      -0.31895531      -0.01266427
C        7.58919179       7.02573950       9.28996110       0.13036796      -0.06831990       0.79653914      -0.35179105       0.09159951       0.23492670      -0.02104739
C        6.38607238       7.13694524       8.61362937       0.38924584      -0.70026772      -0.53162244      -0.14679647       0.26337681      -0.50483145      -0.00085663
H        9.20388668       9.13002214       5.48087265       0.34782857       0.14092748      -0.02950001      -0.15546206      -0.06638990      -0.03942221       0.36221533
H        4.06280822       8.54958126       5.23731692      -0.01915355       0.21430817       0.27464646       0.16861037       0.25611320       0.16511728       0.38650894
18
Lattice="15.099991252438835 0.0 0.0 0.0 15.099991252438835 0.0 0.0 0.0 15.099991252438835" Properties=species:S:1:pos:R:3:momenta:R:3:forces:R:3:charge:R:1 energy=-1059.7726352019952 free_energy=-1059.7726352019952 dipole="-0.8506431585502562 0.3762979628146878 -0.17812991145853946" stress="0.0 0.0 0.0 0.0 0.0 0.0 0.0 0.0 0.0" pbc="T T T"
H        9.70169801       7.16166988       9.11031142      -0.22073422       0.38702556      -0.13403308      -0.02256993      -0.00796136      -0.00684005       0.06248598
C        8.74346194       7.45291654       7.22128556      -0.69386295      -0.32116990      -0.38364147       0.10385181       0.31123168       0.02626956      -0.05651058
C       10.08743474       7.78943689       6.61645420      -1.54862684       0.93197101      -1.25542922      -0.10598798      -0.03899054       0.00978918       0.58553433
H        7.60003634       6.85033004      10.35670231       0.32726957       0.02103571       0.11688662      -0.13712683      -0.03327869       0.00881241       0.04756802
O       10.04998305       8.70054184       5.62843098      -0.50052463      -1.20710085       1.89048860      -0.05034717      -0.05296999       0.01352477      -0.49275012
C        6.33823554       7.46450079       7.25343969       0.03795882      -0.26872589       0.11607801       0.05194325      -0.09458045       0.11031872      -0.02998488
C        4.99423939       7.78975732       6.71973117       0.37416077       2.08774562      -0.01435335      -0.10853982       0.02905320      -0.13053558       0.58063484
O        5.02962212       8.40977198       5.53799184      -0.59647424      -0.23570957       0.03219132       0.03032664      -0.03454670      -0.21974896      -0.51186426
O        3.96225359       7.60426404       7.31144804       0.90965483       0.55427821       0.30422884       0.09005963      -0.09179607      -0.02198024      -0.52641789
O       11.11953584       7.34784912       7.03190802       0.65428177       0.10445752       0.53134157      -0.14532423      -0.04726998      -0.06725383      -0.49340982
C        8.74629983       7.21208477       8.59757276       0.14305030      -0.40385665      -1.11501550       0.15423053      -0.00647360      -0.07078209       0.00482754
H        5.43338407       7.04819171       9.15630300      -0.08888911       0.48465272      -0.11242778      -0.16960136       0.11044299      -0.03256932       0.06468056
H        7.53320333       7.65102358       5.45075935       0.17629453       0.06638317      -0.07667835      -0.12038607       0.23263196       0.09207444       0.04903854
C        7.53295130       7.55916555       6.53350456       0.17815261      -1.78763469      -0.40969935       0.03393184      -0.06469119       0.11100328      -0.01234357
C        7.55996624       7.05063336       9.29301428       0.13036796      -0.06831990       0.79653914       0.27719589      -0.11019394      -0.04032020      -0.02082754
C        6.36152166       7.17329265       8.61601435       0.38924584      -0.70026772      -0.53162244       0.14242209      -0.05436082       0.31956149       0.00179565
H        9.17910712       9.09517409       5.47909998       0.34782857       0.14092748      -0.02950001       0.00914982      -0.10451240      -0.00826503       0.36095767
H        4.11307171       8.61080352       5.28802369      -0.01915355       0.21430817       0.27464646      -0.03322810       0.05826591      -0.09305856       0.38658553
18
Lattice="15.099991252438835 0.0 0.0 0.0 15.099991252438835 0.0 0.0 0.0 15.099991252438835" Properties=species:S:1:pos:R:3:momenta:R:3:forces:R:3:charge:R:1 energy=-1059.8262586237245 free_energy=-1059.8262586237245 dipole="-0.847036176946368 0.45157275857213197 -0.13927207064064245" stress="0.0 0.0 0.0 0.0 0.0 0.0 0.0 0.0 0.0" pbc="T T T"
H        9.71140080       7.16411878       9.11951062      -0.22073422       0.38702556      -0.13403308       0.03632660      -0.02456769      -0.07056670       0.06309041
C        8.74204609       7.50884849       7.23453542      -0.69386295      -0.32116990      -0.38364147       0.02447518      -0.09854159       0.13096670      -0.05638909
C       10.07494173       7.79427230       6.60811774      -1.54862684       0.93197101      -1.25542922       0.07559965      -0.03089401       0.03624338       0.58531131
H        7.60837558       6.81194905      10.35888134       0.32726957       0.02103571       0.11688662      -0.00652999      -0.02874779       0.01968582       0.04713392
O       10.04558716       8.68981810       5.61055006      -0.50052463      -1.20710085       1.89048860      -0.03026542      -0.02470998      -0.04962206      -0.49047700
C        6.33845039       7.45660880       7.27929890       0.03795882      -0.26872589       0.11607801      -0.00441765       0.06781193      -0.10121645      -0.03005326
C        5.00372317       7.76217386       6.69684222       0.37416077       2.08774562      -0.01435335      -0.17371645      -0.01525351       0.05297453       0.57974569
O        5.03904972       8.34891528       5.49298655      -0.59647424      -0.23570957       0.03219132       0.04469040       0.05945380       0.04390800      -0.51244468
O        3.96913574       7.57883631       7.28530363       0.90965483       0.55427821       0.30422884       0.03008280      -0.00058597      -0.04944381      -0.52499253
O       11.09309124       7.31100405       7.01188720       0.65428177       0.10445752       0.53134157      -0.03671209       0.00500349      -0.08959605      -0.49541033
C        8.76153232       7.21585112       8.59880444       0.14305030      -0.40385665      -1.11501550      -0.03373371      -0.02197356       0.12089130       0.00633236
H        5.41811059       7.09473706       9.16771004      -0.08888911       0.48465272      -0.11242778       0.09620448      -0.02069726       0.06290534       0.06509550
H        7.50794854       7.75119183       5.48762614       0.17629453       0.06638317      -0.07667835      -0.08281313       0.06050089       0.02164284       0.04829575
C        7.52657904       7.57919813       6.55901982       0.17815261      -1.78763469      -0.40969935       0.04961985       0.21032381       0.05056695      -0.01350372
C        7.58069843       7.02840751       9.29798065       0.13036796      -0.06831990       0.79653914      -0.08360283       0.02299146       0.06426741      -0.02035319
C        6.36744298       7.17528155       8.64704666       0.38924584      -0.70026772      -0.53162244      -0.02120838      -0.02734981      -0.10352131       0.00181008
H        9.16296045       9.05899289       5.47162485       0.34782857       0.14092748      -0.02950001      -0.00008596       0.02216198      -0.09087031       0.36015818
H        4.13493181       8.64120254       5.27426892      -0.01915355       0.21430817       0.27464646       0.11608666      -0.15492620      -0.04921557       0.38665060
18
Lattice="15.099991252438835 0.0 0.0 0.0 15.099991252438835 0.0 0.0 0.0 15.099991252438835" Properties=species:S:1:pos:R:3:momenta:R:3:forces:R:3:charge:R:1 energy=-1059.8543715550688 free_energy=-1059.8543715550688 dipole="-0.8558570737232372 0.47183007729110515 -0.12505672482204871" stress="0.0 0.0 0.0 0.0 0.0 0.0 0.0 0.0 0.0" pbc="T T T"
H        9.72929177       7.15030859       9.11193228      -0.22073422       0.38702556      -0.13403308      -0.00836590      -0.08419903       0.08909566       0.06319552
C        8.74387028       7.53387756       7.26581028      -0.69386295      -0.32116990      -0.38364147      -0.08713606       0.06342763      -0.10802931      -0.05552417
C       10.06621352       7.79063010       6.60633891      -1.54862684       0.93197101      -1.25542922      -0.02218850       0.01862806      -0.08240463       0.58541649
H        7.59884067       6.77918736      10.37069836       0.32726957       0.02103571       0.11688662      -0.02603438       0.01328646      -0.00825540       0.04721481
O       10.02949221       8.66526769       5.58932955      -0.50052463      -1.20710085       1.89048860       0.01300120      -0.00295891      -0.06037130      -0.49238484
C        6.33635069       7.47563088       7.28864672       0.03795882      -0.26872589       0.11607801      -0.03293123       0.08361319       0.18594834      -0.03063747
C        4.99749539       7.75103890       6.69022715       0.37416077       2.08774562      -0.01435335       0.22898798       0.06899166       0.06849904       0.58082073
O        5.06680606       8.32970214       5.48361445      -0.59647424      -0.23570957       0.03219132      -0.01054021       0.01465614       0.07935751      -0.51312463
O        3.95735852       7.55575861       7.25936962       0.90965483       0.55427821       0.30422884      -0.02912626      -0.01467610      -0.06007545      -0.52160992
O       11.08476687       7.28358791       6.97411397       0.65428177       0.10445752       0.53134157       0.05143183      -0.03395996       0.04753562      -0.49528345
C        8.76432270       7.21086450       8.62338866       0.14305030      -0.40385665      -1.11501550      -0.01325779       0.01888785      -0.09997011       0.00655762
H        5.43303298       7.10947398       9.19229096      -0.08888911       0.48465272      -0.11242778      -0.02762552      -0.12847629      -0.00595391       0.06310824
H        7.47507274       7.84465154       5.52347602       0.17629453       0.06638317      -0.07667835       0.14533054       0.07640178       0.04602152       0.04870848
C        7.53016061       7.65087201       6.59085973       0.17815261      -1.78763469      -0.40969935      -0.13029668      -0.08524380      -0.02586725      -0.01457887
C        7.57849895       7.02082494       9.31421680       0.13036796      -0.06831990       0.79653914       0.02271882      -0.00543118      -0.01145041      -0.02002478
C        6.37024857       7.17023890       8.65110877       0.38924584      -0.70026772      -0.53162244      -0.01438264       0.08357013       0.07893982       0.00166501
H        9.15346983       9.04284938       5.43375387       0.34782857       0.14092748      -0.02950001      -0.01373463       0.00106511      -0.01869593       0.35984227
H        4.17071344       8.60664268       5.23281912      -0.01915355       0.21430817       0.27464646      -0.04585058      -0.08758274      -0.11432382       0.38663895
18
Lattice="15.099991252438835 0.0 0.0 0.0 15.099991252438835 0.0 0.0 0.0 15.099991252438835" Properties=species:S:1:pos:R:3:momenta:R:3:forces:R:3:charge:R:1 energy=-1059.8910456192584 free_energy=-1059.8910456192584 dipole="-0.8317936366332139 0.4625605963436749 -0.12046032112221132" stress="0.0 0.0 0.0 0.0 0.0 0.0 0.0 0.0 0.0" pbc="T T T"
H        9.73143722       7.09335360       9.11871119      -0.22073422       0.38702556      -0.13403308      -0.06267199      -0.02038173      -0.02715479       0.06256979
C        8.73537802       7.57279316       7.28250392      -0.69386295      -0.32116990      -0.38364147       0.06904222      -0.00544664       0.02115041      -0.05548105
C       10.04998670       7.78337363       6.57873758      -1.54862684       0.93197101      -1.25542922      -0.01733900      -0.00952111       0.01763152       0.58502152
H        7.58068909       6.74388715      10.38362706       0.32726957       0.02103571       0.11688662       0.15822551      -0.00120461      -0.03570038       0.04721925
O       10.01310382       8.62776499       5.53580220      -0.50052463      -1.20710085       1.89048860      -0.00725806      -0.02932215      -0.01380465      -0.49242725
C        6.32857380       7.54880804       7.34549992       0.03795882      -0.26872589       0.11607801       0.02539325       0.02237420      -0.06566747      -0.02921899
C        5.00723963       7.77629903       6.70710469       0.37416077       2.08774562      -0.01435335      -0.08107432       0.01106084      -0.07821511       0.58092567
O        5.10944893       8.33649379       5.49391542      -0.59647424      -0.23570957       0.03219132       0.02318670       0.03855724      -0.06593816      -0.51456827
O        3.94659009       7.51814732       7.20967425       0.90965483       0.55427821       0.30422884       0.02726761      -0.00625205       0.06720047      -0.52197592
O       11.06507797       7.25414637       6.92924694       0.65428177       0.10445752       0.53134157      -0.08111173       0.02039801       0.04383459      -0.49500314
C        8.76664500       7.20821358       8.63257555       0.14305030      -0.40385665      -1.11501550       0.01708133      -0.02025335       0.00541188       0.00791199
H        5.43940129       7.06449375       9.23212477      -0.08888911       0.48465272      -0.11242778      -0.06354143      -0.02014253      -0.01020646       0.06237859
H        7.48020690       7.99206979       5.58109589       0.17629453       0.06638317      -0.07667835      -0.04549137      -0.03089775       0.04135042       0.04789315
C        7.51346630       7.72883249       6.63417118       0.17815261      -1.78763469      -0.40969935       0.09711486       0.08548378       0.08226187      -0.01328072
C        7.58436130       7.01679711       9.33389135       0.13036796      -0.06831990       0.79653914      -0.00923471       0.01335222      -0.02135690      -0.02054545
C        6.36932486       7.19005825       8.69132793       0.38924584      -0.70026772      -0.53162244      -0.01728728       0.00985859       0.00957785       0.00220031
H        9.14589084       9.02298749       5.37258267       0.34782857       0.14092748      -0.02950001       0.00687864      -0.01364649       0.02126673       0.36042269
H        4.21918405       8.49288813       5.13940273      -0.01915355       0.21430817       0.27464646      -0.03918024      -0.04401647       0.00835817       0.38595784
18
Lattice="15.099991252438835 0.0 0.0 0.0 15.099991252438835 0.0 0.0 0.0 15.099991252438835" Properties=species:S:1:pos:R:3:momenta:R:3:forces:R:3:charge:R:1 energy=-1059.8994073589433 free_energy=-1059.8994073589433 dipole="-0.8338329046668371 0.46023954133302997 -0.1216772779908349" stress="0.0 0.0 0.0 0.0 0.0 0.0 0.0 0.0 0.0" pbc="T T T"
H        9.72560607       7.06834093       9.12033096      -0.22073422       0.38702556      -0.13403308       0.03105959      -0.03156206       0.00266794       0.06274498
C        8.73894896       7.59326270       7.29380216      -0.69386295      -0.32116990      -0.38364147      -0.03680895       0.01679354       0.00446677      -0.05460055
C       10.04141734       7.78112521       6.57445976      -1.54862684       0.93197101      -1.25542922       0.04580841       0.00966726       0.01805163       0.58518900
H        7.61465717       6.72789989      10.37882275       0.32726957       0.02103571       0.11688662       0.00438382      -0.01078116       0.00379505       0.04685154
O       10.00559116       8.60526379       5.51610015      -0.50052463      -1.20710085       1.89048860       0.00968903      -0.01994804      -0.01518528      -0.49268554
C        6.32762375       7.57686149       7.35943261       0.03795882      -0.26872589       0.11607801      -0.01511018       0.02253372       0.01829879      -0.02956179
C        5.00949511       7.78320337       6.70088453       0.37416077       2.08774562      -0.01435335       0.02594854       0.00973312       0.02828659       0.58077566
O        5.11665191       8.33502508       5.48315367      -0.59647424      -0.23570957       0.03219132      -0.03648983      -0.02800773       0.01331379      -0.51418926
O        3.95143952       7.50633163       7.19882580       0.90965483       0.55427821       0.30422884       0.00019930       0.01750673      -0.01465022      -0.52138241
O       11.05088229       7.24324312       6.92603329       0.65428177       0.10445752       0.53134157       0.04836057      -0.01149057       0.03858672      -0.49609188
C        8.76677118       7.20458634       8.63443596       0.14305030      -0.40385665      -1.11501550      -0.01613495       0.02677189       0.00800283       0.00827757
H        5.43086799       7.05196545       9.23843168      -0.08888911       0.48465272      -0.11242778       0.02952540       0.00964876      -0.04109588       0.06256352
H        7.47212470       8.04159998       5.61076709       0.17629453       0.06638317      -0.07667835      -0.00384157       0.02050635      -0.03382218       0.04762575
C        7.51588647       7.77433421       6.66038502       0.17815261      -1.78763469      -0.40969935      -0.05968954       0.00425999      -0.03718306      -0.01433734
C        7.58435240       7.01757249       9.33498613       0.13036796      -0.06831990       0.79653914       0.00474984      -0.01638815       0.00944696      -0.02099154
C        6.36360938       7.19843940       8.70260605       0.38924584      -0.70026772      -0.53162244       0.00242230      -0.00162750      -0.02224125       0.00328229
H        9.14263450       9.01072569       5.35799131       0.34782857       0.14092748      -0.02950001      -0.00744523      -0.00024132       0.00851527       0.36037480
H        4.22744590       8.45162690       5.11054628      -0.01915355       0.21430817       0.27464646      -0.02662656      -0.01737481       0.01074552       0.38615519
18
Lattice="15.099991252438835 0.0 0.0 0.0 15.099991252438835 0.0 0.0 0.0 15.099991252438835" Properties=species:S:1:pos:R:3:momenta:R:3:forces:R:3:charge:R:1 energy=-1059.901813247919 free_energy=-1059.901813247919 dipole="-0.8300391555489329 0.4558334076979697 -0.11992282448390328" stress="0.0 0.0 0.0 0.0 0.0 0.0 0.0 0.0 0.0" pbc="T T T"
H        9.72613627       7.05594835       9.11632978      -0.22073422       0.38702556      -0.13403308      -0.00678824       0.01871066      -0.02641593       0.06287904
C        8.73695430       7.59959973       7.29295319      -0.69386295      -0.32116990      -0.38364147       0.02368688       0.00487295      -0.00668578      -0.05557061
C       10.04763346       7.78174270       6.58079953      -1.54862684       0.93197101      -1.25542922      -0.04339991      -0.00537434      -0.01144178       0.58502290
H        7.62452247       6.72329437      10.37795001       0.32726957       0.02103571       0.11688662      -0.04443771      -0.02013501      -0.01556720       0.04707253
O       10.00884345       8.59416932       5.51245044      -0.50052463      -1.20710085       1.89048860       0.02027902      -0.00920938       0.01543537      -0.49281966
C        6.32756607       7.58821185       7.35941357       0.03795882      -0.26872589       0.11607801       0.01980878      -0.01101026      -0.00995414      -0.02954956
C        5.00772336       7.78954502       6.70394129       0.37416077       2.08774562      -0.01435335      -0.00877448      -0.01163581       0.00339307       0.58061700
O        5.10725311       8.33188063       5.48173875      -0.59647424      -0.23570957       0.03219132      -0.02926783      -0.01131060      -0.00583383      -0.51396949
O        3.95038640       7.51136930       7.20298547       0.90965483       0.55427821       0.30422884       0.00578444       0.01104400       0.02771906      -0.52186728
O       11.05615638       7.24752786       6.94172494       0.65428177       0.10445752       0.53134157      -0.02116368       0.03708675       0.00741885      -0.49535290
C        8.76644020       7.20963480       8.63390001       0.14305030      -0.40385665      -1.11501550       0.00585292      -0.03399148      -0.02665611       0.00806536
H        5.43134217       7.04933692       9.22668853      -0.08888911       0.48465272      -0.11242778      -0.00546965       0.00101819       0.01780702       0.06264515
H        7.46851027       8.04649585       5.60356464       0.17629453       0.06638317      -0.07667835       0.00692835       0.01584083       0.02546574       0.04799200
C        7.51363725       7.78260784       6.65554777       0.17815261      -1.78763469      -0.40969935       0.03524926       0.01283246       0.01051034      -0.01400174
C        7.58577915       7.01546184       9.33473934       0.13036796      -0.06831990       0.79653914       0.00372797       0.02165460      -0.01594471      -0.02071088
C        6.36663462       7.20029075       8.69971558       0.38924584      -0.70026772      -0.53162244       0.00261203       0.01650983      -0.00207026       0.00316515
H        9.14651215       9.00693896       5.36348824       0.34782857       0.14092748      -0.02950001       0.03702138      -0.02545675       0.00261015       0.36015521
H        4.21397471       8.43735159       5.11406412      -0.01915355       0.21430817       0.27464646      -0.00164956      -0.01144664       0.01021014       0.38622778
18
Lattice="15.099991252438835 0.0 0.0 0.0 15.099991252438835 0.0 0.0 0.0 15.099991252438835" Properties=species:S:1:pos:R:3:momenta:R:3:forces:R:3:charge:R:1 energy=-1059.9049134894058 free_energy=-1059.9049134894058 dipole="-0.8348663722176488 0.4430648710746118 -0.13161477659859777" stress="0.0 0.0 0.0 0.0 0.0 0.0 0.0 0.0 0.0" pbc="T T T"
H        9.72972085       7.04139225       9.09891387      -0.22073422       0.38702556      -0.13403308       0.00595106      -0.00903003       0.01111201       0.06360880
C        8.73776252       7.61388986       7.29222840      -0.69386295      -0.32116990      -0.38364147      -0.01440442      -0.02281346       0.00242145      -0.05626291
C       10.04971864       7.78204420       6.58508004      -1.54862684       0.93197101      -1.25542922       0.05539098       0.01580269       0.03345618       0.58459827
H        7.61491730       6.69986574      10.36809863       0.32726957       0.02103571       0.11688662       0.01264951       0.01703210      -0.02146277       0.04720251
O       10.02205594       8.57205364       5.50211807      -0.50052463      -1.20710085       1.89048860      -0.00569130       0.01297698      -0.00111913      -0.49176009
C        6.33015975       7.60609376       7.35983409       0.03795882      -0.26872589       0.11607801      -0.03323924       0.01387066       0.00272245      -0.02967362
C        5.00456088       7.79205493       6.70928163       0.37416077       2.08774562      -0.01435335      -0.00136347       0.02211438      -0.00776679       0.58054225
O        5.09117280       8.31264291       5.47715467      -0.59647424      -0.23570957       0.03219132       0.01128937      -0.01099402      -0.01506893      -0.51368525
O        3.95117051       7.51862786       7.21947199       0.90965483       0.55427821       0.30422884       0.02142144      -0.00485870       0.04536281      -0.52209564
O       11.05599385       7.25873273       6.96772037       0.65428177       0.10445752       0.53134157       0.02181658      -0.02109860       0.01164845      -0.49649807
C        8.76724264       7.20419791       8.62701822       0.14305030      -0.40385665      -1.11501550      -0.00430764       0.01826176       0.01862921       0.00865785
H        5.43524535       7.04980539       9.22215322      -0.08888911       0.48465272      -0.11242778      -0.00955461       0.01628937       0.01846356       0.06281645
H        7.46626053       8.08724962       5.61041682       0.17629453       0.06638317      -0.07667835       0.02090446       0.02190014      -0.00473979       0.04781547
C        7.51572036       7.81195886       6.65847967       0.17815261      -1.78763469      -0.40969935      -0.02745779      -0.02173456      -0.00121753      -0.01398101
C        7.58788508       7.01601120       9.33115813       0.13036796      -0.06831990       0.79653914      -0.01640492      -0.03561020      -0.02147224      -0.02065939
C        6.37015527       7.21194181       8.69776995       0.38924584      -0.70026772      -0.53162244      -0.01736589      -0.03133991      -0.00482915       0.00322001
H        9.16183619       8.98877326       5.36019188       0.34782857       0.14092748      -0.02950001      -0.00775641       0.02438129      -0.07039176       0.35979907
H        4.19442733       8.40407172       5.11490557      -0.01915355       0.21430817       0.27464646      -0.01187771      -0.00514989       0.00425195       0.38635529
18
Lattice="15.099991252438835 0.0 0.0 0.0 15.099991252438835 0.0 0.0 0.0 15.099991252438835" Properties=species:S:1:pos:R:3:momenta:R:3:forces:R:3:charge:R:1 energy=-1059.9073782694 free_energy=-1059.9073782694 dipole="-0.8378236584531138 0.44255514073532487 -0.1541984094211634" stress="0.0 0.0 0.0 0.0 0.0 0.0 0.0 0.0 0.0" pbc="T T T"
H        9.73017977       7.02905140       9.08984123      -0.22073422       0.38702556      -0.13403308      -0.02069564      -0.00055974       0.02956221       0.06395180
C        8.73825316       7.61896970       7.29134463      -0.69386295      -0.32116990      -0.38364147      -0.00647347       0.01301171       0.00424427      -0.05655289
C       10.05673675       7.78615067       6.59401234      -1.54862684       0.93197101      -1.25542922      -0.02838579       0.00065489      -0.02817427       0.58484429
H        7.61108506       6.68596464      10.35633452       0.32726957       0.02103571       0.11688662       0.01591944      -0.00734936       0.02176392       0.04692507
O       10.03372502       8.56015756       5.49851774      -0.50052463      -1.20710085       1.89048860       0.02848405       0.02564054       0.00337356      -0.49248285
C        6.32897567       7.62182058       7.35971519       0.03795882      -0.26872589       0.11607801       0.01840868      -0.02751084       0.00440875      -0.02983274
C        5.00129309       7.79898835       6.71463144       0.37416077       2.08774562      -0.01435335       0.01573399      -0.01270841       0.01687726       0.58058742
O        5.07620500       8.29353021       5.47144395      -0.59647424      -0.23570957       0.03219132      -0.02124621      -0.00488033       0.02158920      -0.51316849
O        3.95643737       7.52699569       7.24349239       0.90965483       0.55427821       0.30422884      -0.01963071       0.03788950      -0.02579811      -0.52270623
O       11.06056261       7.26736944       6.98993445       0.65428177       0.10445752       0.53134157      -0.00393046       0.02544611      -0.01139120      -0.49628903
C        8.76632178       7.20171780       8.62329524       0.14305030      -0.40385665      -1.11501550      -0.01139775      -0.03678364      -0.00713754       0.00856175