18
Lattice="15.099991252438835 0.0 0.0 0.0 15.099991252438835 0.0 0.0 0.0 15.099991252438835" Properties=species:S:1:pos:R:3:momenta:R:3:forces:R:3:charge:R:1 energy=-1059.6873844573336 free_energy=-1059.6873844573336 dipole="-0.8571462999547382 0.44672486078491064 -0.18817200149738703" stress="0.0 0.0 0.0 0.0 0.0 0.0 0.0 0.0 0.0" pbc="T T T"
H        9.75753358       6.97083552       9.02064511      -0.04632239      -0.10765694      -0.03360786      -0.39894755       0.13522344       0.30593828       0.06950068
C        8.73435913       7.76314233       7.36451393      -0.81311596      -0.02651132      -0.25536096       0.41367625      -0.12758068       0.03454659      -0.06355835
C       10.07815826       7.80997313       6.70639455       1.06481274      -0.22322359       1.01789357      -0.74565074       0.12877982      -0.53783226       0.58596803
H        7.59518385       6.58345781      10.32264016       0.12082798      -0.06845600      -0.10392086      -0.12277397       0.28565147      -0.23415846       0.04676436
O        9.97748498       8.08128022       5.39846478      -0.99246803      -0.14966402       0.72691059       0.32495898       0.42522105      -0.16979056      -0.49775833
C        6.33698023       7.70642198       7.34318436      -0.08174986       0.82957978       0.35270463      -0.08514399       0.22026651       0.12628054      -0.02692655
C        5.03876798       7.81388555       6.61581693      -1.41299216       0.20997021      -0.52359633      -0.01757186      -0.09935266       0.21578928       0.58279311
O        5.12144652       8.44342409       5.43804516       0.79907664      -0.69459992      -0.58933509      -0.13352889       0.23028193      -0.08702213      -0.51180044
O        4.01308055       7.35664180       7.04055044       1.66604527       0.44497279       0.23723748      -0.20299294       0.06737715       0.03208357      -0.52065091
O       11.09557135       7.55764459       7.26730039      -0.84454013       0.70923573      -0.67747054       0.55884190      -0.09417245       0.11418832      -0.49290179
C        8.76762127       7.25211499       8.65282577      -0.42848429      -0.58140586       0.05142186      -0.04741445      -0.27398917       0.22896339       0.00622543
H        5.40975915       7.13183044       9.16954114      -0.36049106       0.04508766      -0.01787318       0.21229598      -0.12587798      -0.00435790       0.06118024
H        7.49652360       8.32115200       5.67754876       0.05590147      -0.19635242       0.15574854       0.03863429       0.04125741       0.00898252       0.04521167
C        7.53271538       7.98972216       6.71173320       0.22087044      -0.88103899      -0.30317673       0.21447549       0.03542782      -0.46510909      -0.01346112
C        7.57996461       7.03304334       9.32574442       0.54393283       0.81781485      -0.10800851      -0.47720876      -0.19150634       0.07599913      -0.01938230
C        6.36700891       7.28519431       8.67012185       0.47814732      -0.28142223       0.51756180      -0.00449327      -0.27136381       0.53027405       0.00399585
H        9.11968854       8.50753057       5.24012408       0.02581162       0.11168690      -0.31103399       0.17038985      -0.16121822      -0.36580554       0.35781802
H        4.22869157       8.56897754       5.05512185       0.00473757       0.04198339      -0.13609442       0.30245369      -0.22442530       0.19103027       0.38698240
18
Lattice="15.099991252438835 0.0 0.0 0.0 15.099991252438835 0.0 0.0 0.0 15.099991252438835" Properties=species:S:1:pos:R:3:momenta:R:3:forces:R:3:charge:R:1 energy=-1059.8620778244492 free_energy=-1059.8620778244492 dipole="-0.879336332660682 0.3236305807546754 -0.20943245552987244" stress="0.0 0.0 0.0 0.0 0.0 0.0 0.0 0.0 0.0" pbc="T T T"
H        9.67560835       6.99287888       9.13335998      -0.04632239      -0.10765694      -0.03360786       0.18054500      -0.01856068       0.02399000       0.06488568
C        8.75064206       7.71349036       7.34326274      -0.81311596      -0.02651132      -0.25536096      -0.03691658      -0.14525808      -0.13373152      -0.05778981
C       10.08703853       7.81869536       6.65752712       1.06481274      -0.22322359       1.01789357      -0.02882446       0.05458499       0.06508321       0.58344117
H        7.55330733       6.62563448      10.33737396       0.12082798      -0.06845600      -0.10392086      -0.00221922      -0.03069249       0.01979772       0.04794585
O       10.05051965       8.19701601       5.37258150      -0.99246803      -0.14966402       0.72691059      -0.07393023       0.08813738       0.12732678      -0.49149032
C        6.34098528       7.73970019       7.36851242      -0.08174986       0.82957978       0.35270463      -0.05856227      -0.26214309      -0.05945693      -0.02935411
C        5.03517493       7.83329058       6.65709206      -1.41299216       0.20997021      -0.52359633       0.05606513       0.15846683      -0.08719199       0.58077789
O        5.13896476       8.46928759       5.48279603       0.79907664      -0.69459992      -0.58933509      -0.04235576       0.09812171      -0.08875042      -0.51409370
O        3.99319303       7.37866370       7.04560809       1.66604527       0.44497279       0.23723748       0.09531452       0.01442122       0.18478036      -0.52086446
O       11.11272035       7.55839793       7.21621985      -0.84454013       0.70923573      -0.67747054       0.07279117      -0.05821799       0.07196341      -0.49688144
C        8.73601089       7.21536380       8.64929807      -0.42848429      -0.58140586       0.05142186       0.05310177       0.06784584      -0.02828695       0.01020663
H        5.41004029       7.08440942       9.19617223      -0.36049106       0.04508766      -0.01787318      -0.06182601      -0.00156915      -0.10943224       0.06190537
H        7.51410984       8.33469934       5.66747580       0.05590147      -0.19635242       0.15574854      -0.02352949      -0.07945779       0.19276271       0.04490624
C        7.54351314       7.97137360       6.69603049       0.22087044      -0.88103899      -0.30317673      -0.10192326       0.01387063       0.11393141      -0.01173916
C        7.54559629       6.99830400       9.32109198       0.54393283       0.81781485      -0.10800851       0.03174586       0.15982567      -0.03618265      -0.02058125
C        6.34762495       7.26202556       8.68086310       0.47814732      -0.28142223       0.51756180      -0.07748684      -0.02965505       0.01302120       0.00415601
H        9.16005487       8.46980616       5.11410792       0.02581162       0.11168690      -0.31103399       0.01651268      -0.00195906      -0.22526680       0.35833518
H        4.25543493       8.51323543       5.08094356       0.00473757       0.04198339      -0.13609442       0.00149801      -0.02776089      -0.04435730       0.38623423
18
Lattice="15.099991252438835 0.0 0.0 0.0 15.099991252438835 0.0 0.0 0.0 15.099991252438835" Properties=species:S:1:pos:R:3:momenta:R:3:forces:R:3:charge:R:1 energy=-1059.8898337317398 free_energy=-1059.8898337317398 dipole="-0.8849978000061245 0.2802284330233409 -0.2681387463970154" stress="0.0 0.0 0.0 0.0 0.0 0.0 0.0 0.0 0.0" pbc="T T T"
H        9.68304882       6.99822070       9.14716639      -0.04632239      -0.10765694      -0.03360786       0.03439087       0.00669296      -0.03744677       0.06494229
C        8.75182960       7.68265135       7.33809608      -0.81311596      -0.02651132      -0.25536096      -0.01605490       0.05202301       0.01647696      -0.05582980
C       10.08506530       7.82231274       6.65894143       1.06481274      -0.22322359       1.01789357      -0.03080001       0.00607020      -0.01191507       0.58450209
H        7.54749046       6.63609435      10.33559233       0.12082798      -0.06845600      -0.10392086       0.02022339       0.01210917       0.10903779       0.04694026
O       10.05722046       8.24175600       5.38549246      -0.99246803      -0.14966402       0.72691059       0.02696127       0.03944201       0.02572839      -0.49318678
C        6.33774797       7.71229528       7.36577141      -0.08174986       0.82957978       0.35270463       0.03519039       0.03882500      -0.03496735      -0.02899996
C        5.03938847       7.84897085       6.65710258      -1.41299216       0.20997021      -0.52359633      -0.02323657      -0.02993055       0.03488453       0.58038243
O        5.13328844       8.48960389       5.48310712       0.79907664      -0.69459992      -0.58933509      -0.02817569      -0.05017656       0.05331864      -0.51335782
O        4.00438217       7.39844312       7.07113209       1.66604527       0.44497279       0.23723748      -0.03948620       0.09133748      -0.02549205      -0.52229378
O       11.11266031       7.55470554       7.21383030      -0.84454013       0.70923573      -0.67747054      -0.01394396       0.01054685       0.00949838      -0.49779721
C        8.74158803       7.21337108       8.65423642      -0.42848429      -0.58140586       0.05142186      -0.00125224      -0.00363236       0.00567732       0.01027336
H        5.39456962       7.07261996       9.18279081      -0.36049106       0.04508766      -0.01787318      -0.00610131      -0.02695369      -0.02066791       0.06305103
H        7.50919807       8.32729539       5.68921692       0.05590147      -0.19635242       0.15574854      -0.00067888      -0.01697724      -0.01807388       0.04368344
C        7.54078001       7.95655830       6.70872573       0.22087044      -0.88103899      -0.30317673       0.02521918      -0.08250937      -0.04019194      -0.01240460
C        7.54389398       7.01345152       9.32237945       0.54393283       0.81781485      -0.10800851       0.02010450      -0.04817256       0.01255245      -0.02138392
C        6.33964848       7.24854580       8.68166091       0.47814732      -0.28142223       0.51756180      -0.00553380      -0.00104977      -0.07078608       0.00482066
H        9.17521844       8.45863851       5.05308369       0.02581162       0.11168690      -0.31103399       0.02714776      -0.02692480       0.01181853       0.36004665
H        4.25352083       8.50073801       5.07199080       0.00473757       0.04198339      -0.13609442      -0.02397380       0.02928021      -0.01945194       0.38661164
18
Lattice="15.099991252438835 0.0 0.0 0.0 15.099991252438835 0.0 0.0 0.0 15.099991252438835" Properties=species:S:1:pos:R:3:momenta:R:3:forces:R:3:charge:R:1 energy=-1059.8960053550834 free_energy=-1059.8960053550834 dipole="-0.8807650851203057 0.253937937217798 -0.29204931892423386" stress="0.0 0.0 0.0 0.0 0.0 0.0 0.0 0.0 0.0" pbc="T T T"
H        9.69423278       7.00358885       9.13860689      -0.04632239      -0.10765694      -0.03360786      -0.05689177       0.02479187      -0.00906174       0.06527725
C        8.74951697       7.68087719       7.33945749      -0.81311596      -0.02651132      -0.25536096       0.00059222      -0.04151342      -0.00986154      -0.05579959
C       10.08253845       7.82864102       6.66255408       1.06481274      -0.22322359       1.01789357       0.03441150       0.00774385       0.03104836       0.58429046
H        7.55103736       6.64745469      10.35478005       0.12082798      -0.06845600      -0.10392086      -0.00998407       0.03437064      -0.11380077       0.04698896
O       10.06651806       8.26780089       5.39628106      -0.99246803      -0.14966402       0.72691059      -0.00634072       0.00509386      -0.00542900      -0.49282653
C        6.33825240       7.70245590       7.35886406      -0.08174986       0.82957978       0.35270463      -0.02215616      -0.05531944       0.02738808      -0.02941419
C        5.03208353       7.85206214       6.66169721      -1.41299216       0.20997021      -0.52359633       0.00265036       0.00691774       0.00199155       0.58090219
O        5.12700469       8.48485918       5.48467042       0.79907664      -0.69459992      -0.58933509       0.02079893      -0.01895344      -0.04467326      -0.51334040
O        3.98986640       7.42843404       7.08436548       1.66604527       0.44497279       0.23723748      -0.01701547       0.03469809       0.04619052      -0.52186253
O       11.10852198       7.55592507       7.21880867      -0.84454013       0.70923573      -0.67747054      -0.00047371       0.01443338       0.02514825      -0.49860185
C        8.74271720       7.21214710       8.65767597      -0.42848429      -0.58140586       0.05142186      -0.00060237      -0.01417819      -0.01035575       0.01008363
H        5.39299172       7.06119043       9.16764950      -0.36049106       0.04508766      -0.01787318       0.02024671      -0.01543541       0.00800377       0.06274309
H        7.51012623       8.31613707       5.68446742       0.05590147      -0.19635242       0.15574854       0.01597895      -0.03130806      -0.06032815       0.04355700
C        7.54147054       7.93750452       6.70000126       0.22087044      -0.88103899      -0.30317673      -0.02742949       0.04636674       0.00360889      -0.01203092
C        7.54539244       7.00477101       9.32814474       0.54393283       0.81781485      -0.10800851       0.01207040       0.02785520      -0.01829559      -0.02084303
C        6.34303209       7.23865275       8.67488169       0.47814732      -0.28142223       0.51756180       0.02804869      -0.04516536       0.05934240       0.00420487
H        9.18661985       8.44739017       5.03812698       0.02581162       0.11168690      -0.31103399       0.00839449      -0.00098234       0.03412827       0.36024724
H        4.24861676       8.50638037       5.06928393       0.00473757       0.04198339      -0.13609442      -0.00229848       0.02058428       0.03495573       0.38642434
18
Lattice="15.099991252438835 0.0 0.0 0.0 15.099991252438835 0.0 0.0 0.0 15.099991252438835" Properties=species:S:1:pos:R:3:momenta:R:3:forces:R:3:charge:R:1 energy=-1059.9028301968792 free_energy=-1059.9028301968792 dipole="-0.8714605817000323 0.2226395601722745 -0.3072789705573727" stress="0.0 0.0 0.0 0.0 0.0 0.0 0.0 0.0 0.0" pbc="T T T"
H        9.69403197       7.01824681       9.12823316      -0.04632239      -0.10765694      -0.03360786       0.03098136      -0.00627297       0.04286709       0.06587353
C        8.74477096       7.67051702       7.32865077      -0.81311596      -0.02651132      -0.25536096       0.01662653       0.01916836      -0.03206721      -0.05680390
C       10.08603261       7.83723249       6.67285687       1.06481274      -0.22322359       1.01789357      -0.00828765      -0.00050358      -0.03417078       0.58424450
H        7.55542696       6.66738880      10.34919128       0.12082798      -0.06845600      -0.10392086       0.01467388      -0.04663022       0.05882894       0.04722076
O       10.08022103       8.29495715       5.41316740      -0.99246803      -0.14966402       0.72691059       0.01385840      -0.01999137      -0.01040094      -0.49268801
C        6.33505086       7.67591064       7.35043229      -0.08174986       0.82957978       0.35270463       0.00517975       0.03569040      -0.04592748      -0.02948046
C        5.02344473       7.85389589       6.66881265      -1.41299216       0.20997021      -0.52359633      -0.00123708       0.01410337      -0.01585881       0.58046797
O        5.12691977       8.46093063       5.47765356       0.79907664      -0.69459992      -0.58933509      -0.00143501      -0.02820439      -0.00471095      -0.51381848
O        3.96959390       7.48662600       7.11590922       1.66604527       0.44497279       0.23723748       0.05001364       0.03076098       0.03126040      -0.52163636
O       11.10632160       7.56712645       7.24010998      -0.84454013       0.70923573      -0.67747054       0.01260765       0.02994464       0.01956136      -0.49833090
C        8.74241491       7.21003536       8.64749866      -0.42848429      -0.58140586       0.05142186      -0.00451369       0.03800774      -0.00532427       0.00999235
H        5.39861999       7.03769447       9.16151057      -0.36049106       0.04508766      -0.01787318      -0.01291940      -0.02211118       0.03874996       0.06300784
H        7.51464279       8.28475966       5.66240095       0.05590147      -0.19635242       0.15574854      -0.04941458      -0.00442808       0.05152196       0.04353778
C        7.53562745       7.92713709       6.68845868       0.22087044      -0.88103899      -0.30317673       0.02913531      -0.11257060      -0.02508850      -0.01118114
C        7.55024810       7.00489594       9.32154005       0.54393283       0.81781485      -0.10800851      -0.04269258      -0.01057967      -0.03714618      -0.02085262
C        6.34681940       7.21698238       8.66865938       0.47814732      -0.28142223       0.51756180      -0.04754649       0.04714968      -0.06467328       0.00404182
H        9.19901390       8.43632827       5.04239514       0.02581162       0.11168690      -0.31103399      -0.00270803       0.02977172       0.01169794       0.36017042
H        4.24133853       8.52560732       5.08283627       0.00473757       0.04198339      -0.13609442      -0.00232202       0.00669518       0.02088074       0.38623490
18
Lattice="15.099991252438835 0.0 0.0 0.0 15.099991252438835 0.0 0.0 0.0 15.099991252438835" Properties=species:S:1:pos:R:3:momenta:R:3:forces:R:3:charge:R:1 energy=-1059.9076054384238 free_energy=-1059.9076054384238 dipole="-0.8721410829133127 0.20671734340777492 -0.32244413534650446" stress="0.0 0.0 0.0 0.0 0.0 0.0 0.0 0.0 0.0" pbc="T T T"
H        9.69377580       7.03148357       9.12965765      -0.04632239      -0.10765694      -0.03360786      -0.02480753       0.02481040       0.02212001       0.06596090
C        8.74604440       7.66064278       7.31829850      -0.81311596      -0.02651132      -0.25536096       0.00484929      -0.01818883       0.02135620      -0.05715577
C       10.09164670       7.84433684       6.67672434       1.06481274      -0.22322359       1.01789357      -0.00563090      -0.00192325       0.00683857       0.58420181
H        7.56019050       6.67208582      10.34450958       0.12082798      -0.06845600      -0.10392086      -0.02246980      -0.03073502      -0.00821325       0.04682254
O       10.09277896       8.30852196       5.41992625      -0.99246803      -0.14966402       0.72691059      -0.00549281      -0.03137267      -0.00556710      -0.49187128
C        6.33371348       7.65795503       7.33796283      -0.08174986       0.82957978       0.35270463       0.02897118      -0.01962303       0.03349724      -0.02964046
C        5.02109779       7.86008984       6.67057327      -1.41299216       0.20997021      -0.52359633       0.02252739      -0.00906847       0.01738676       0.58063859
O        5.12439602       8.43561646       5.46498753       0.79907664      -0.69459992      -0.58933509      -0.02477721      -0.00464586       0.00557564      -0.51345492
O        3.96578389       7.54269582       7.15078064       1.66604527       0.44497279       0.23723748      -0.01272566       0.03903256      -0.01861111      -0.52228819
O       11.10711629       7.58722025       7.25897483      -0.84454013       0.70923573      -0.67747054       0.01767595       0.03584311      -0.03023840      -0.49849539
C        8.74165146       7.21568824       8.64299029      -0.42848429      -0.58140586       0.05142186      -0.00538409      -0.02657745      -0.00491954       0.00998717
H        5.40080545       7.01686415       9.16227688      -0.36049106       0.04508766      -0.01787318      -0.01077680       0.03693103      -0.02969267       0.06325647
H        7.50448365       8.25810873       5.65142660       0.05590147      -0.19635242       0.15574854       0.00161231      -0.02677771      -0.02353468       0.04365709
C        7.53543128       7.89363260       6.67315706       0.22087044      -0.88103899      -0.30317673       0.00054950       0.03602976       0.00123897      -0.01153686
C        7.54743674       7.00217448       9.31226501       0.54393283       0.81781485      -0.10800851       0.03263713      -0.00741048       0.02862591      -0.02132863
C        6.34253756       7.20744847       8.65902464       0.47814732      -0.28142223       0.51756180       0.02419425      -0.02698181       0.02041093       0.00464817
H        9.20957887       8.43863042       5.04931925       0.02581162       0.11168690      -0.31103399       0.00663880       0.03578059      -0.01389800       0.36012469
H        4.23207063       8.54307692       5.09746175       0.00473757       0.04198339      -0.13609442      -0.02759100      -0.00512288      -0.02237548       0.38647409
18
Lattice="15.099991252438835 0.0 0.0 0.0 15.099991252438835 0.0 0.0 0.0 15.099991252438835" Properties=species:S:1:pos:R:3:momenta:R:3:forces:R:3:charge:R:1 energy=-1059.9106048600943 free_energy=-1059.9106048600943 dipole="-0.8733277141207286 0.19642960625919517 -0.32249248882583376" stress="0.0 0.0 0.0 0.0 0.0 0.0 0.0 0.0 0.0" pbc="T T T"
H        9.68925465       7.04693166       9.14209245      -0.04632239      -0.10765694      -0.03360786       0.02171844      -0.00161446      -0.00888310       0.06549275
C        8.74880394       7.65102052       7.31527744      -0.81311596      -0.02651132      -0.25536096      -0.00196917       0.01528266       0.01711681      -0.05679828
C       10.09542270       7.84844416       6.67735970       1.06481274      -0.22322359       1.01789357      -0.00155263       0.01286682      -0.00141671       0.58425140
H        7.55694497       6.65933407      10.34459025       0.12082798      -0.06845600      -0.10392086       0.00055576      -0.00189812      -0.02424529       0.04709358
O       10.09678360       8.30383236       5.41743303      -0.99246803      -0.14966402       0.72691059      -0.00822471      -0.00238702      -0.01582700      -0.49199886
C        6.33759603       7.64497292       7.33422622      -0.08174986       0.82957978       0.35270463      -0.02377214       0.01620422      -0.01115752      -0.02991057
C        5.02204443       7.86508222       6.67362639      -1.41299216       0.20997021      -0.52359633      -0.01012611       0.02169058       0.00033726       0.58037242
O        5.11781019       8.41959648       5.45699007       0.79907664      -0.69459992      -0.58933509       0.02677387      -0.00026148       0.00054292      -0.51360964
O        3.96366388       7.58662699       7.17082917       1.66604527       0.44497279       0.23723748      -0.01231872      -0.00399591       0.03276060      -0.52243584
O       11.11468804       7.61261665       7.26187814      -0.84454013       0.70923573      -0.67747054      -0.01467771      -0.00209674       0.01413382      -0.49836509
C        8.74104757       7.21237538       8.64284316      -0.42848429      -0.58140586       0.05142186       0.00812305       0.00342319       0.01604749       0.01008206
H        5.39860910       7.01772120       9.15486489      -0.36049106       0.04508766      -0.01787318      -0.00037468       0.01214288      -0.00220079       0.06341705
H        7.49810685       8.23301480       5.64063386       0.05590147      -0.19635242       0.15574854       0.04739283      -0.01795313       0.00599541       0.04398294
C        7.53794381       7.87925166       6.66650266       0.22087044      -0.88103899      -0.30317673      -0.00471309      -0.01577589       0.00990104      -0.01161202
C        7.54825283       6.99408548       9.31330290       0.54393283       0.81781485      -0.10800851      -0.01463135      -0.02165139      -0.02129422      -0.02116603
C        6.34499348       7.19755537       8.65669073       0.47814732      -0.28142223       0.51756180      -0.01241019       0.00249184      -0.01354381       0.00454803
H        9.21714372       8.45564794       5.04795803       0.02581162       0.11168690      -0.31103399      -0.01969441       0.00961757      -0.01126117       0.36019361
H        4.22142967       8.54816253       5.10321780       0.00473757       0.04198339      -0.13609442       0.01990096      -0.02608562       0.01299427       0.38646250
18
Lattice="15.099991252438835 0.0 0.0 0.0 15.099991252438835 0.0 0.0 0.0 15.099991252438835" Properties=species:S:1:pos:R:3:momenta:R:3:forces:R:3:charge:R:1 energy=-1059.911874400439 free_energy=-1059.911874400439 dipole="-0.8720253480270568 0.19583913800464148 -0.32560571978726127" stress="0.0 0.0 0.0 0.0 0.0 0.0 0.0 0.0 0.0" pbc="T T T"
H        9.69199115       7.05299781       9.14464154      -0.04632239      -0.10765694      -0.03360786      -0.00627681      -0.00781652      -0.00391664       0.06565795
C        8.74915799       7.65153167       7.31778739      -0.81311596      -0.02651132      -0.25536096      -0.00087821       0.00194818      -0.01086007      -0.05670838
C       10.09429736       7.85328631       6.67787743       1.06481274      -0.22322359       1.01789357      -0.01229585       0.00005637      -0.00474969       0.58424371
H        7.55464483       6.65112271      10.33876789       0.12082798      -0.06845600      -0.10392086      -0.00376438      -0.02041642       0.00977824       0.04697258
O       10.09440584       8.29929222       5.41391192      -0.99246803      -0.14966402       0.72691059      -0.01058450       0.01068694       0.01010185      -0.49232312
C        6.33655022       7.64306009       7.33191939      -0.08174986       0.82957978       0.35270463       0.01266007       0.00006728      -0.00007664      -0.02992724
C        5.02039163       7.87046458       6.67754041      -1.41299216       0.20997021      -0.52359633       0.00391797      -0.00327150       0.00368094       0.58037497
O        5.11840490       8.41159210       5.45563848       0.79907664      -0.69459992      -0.58933509      -0.00278587      -0.00003436       0.00490078      -0.51335180
O        3.96192673       7.60713531       7.18354308       1.66604527       0.44497279       0.23723748       0.00901936       0.01490202      -0.00025586      -0.52264411
O       11.11367694       7.62419589       7.26496851      -0.84454013       0.70923573      -0.67747054      -0.00449980       0.00437067      -0.00748483      -0.49831421
C        8.74242341       7.21186990       8.64480419      -0.42848429      -0.58140586       0.05142186      -0.00133076       0.00693218      -0.00816258       0.01017848
H        5.39665047       7.02216517       9.15137277      -0.36049106       0.04508766      -0.01787318       0.00123151      -0.00701802       0.01155337       0.06357826
H        7.50854306       8.21680485       5.63704815       0.05590147      -0.19635242       0.15574854       0.00620432      -0.00107639      -0.00344838       0.04358944
C        7.53882414       7.87120983       6.66562743       0.22087044      -0.88103899      -0.30317673       0.00733437       0.00327188      -0.00415681      -0.01134567
C        7.54722781       6.98601241       9.30852332       0.54393283       0.81781485      -0.10800851       0.00303839       0.00582714       0.00687062      -0.02124355
C        6.34421170       7.19407817       8.65315145       0.47814732      -0.28142223       0.51756180      -0.00041223       0.01365551       0.00574110       0.00443178
H        9.21590898       8.46575349       5.04665212       0.02581162       0.11168690      -0.31103399       0.00046936      -0.01052365       0.00743917       0.36031514
H        4.22130231       8.54369988       5.10654143       0.00473757       0.04198339      -0.13609442      -0.00104693      -0.01156130      -0.01695458       0.38651577
18
Lattice="15.099991252438835 0.0 0.0 0.0 15.099991252438835 0.0 0.0 0.0 15.099991252438835" Properties=species:S:1:pos:R:3:momenta:R:3:forces:R:3:charge:R:1 energy=-1059.9122718529652 free_energy=-1059.9122718529652 dipole="-0.8724001778424715 0.1807906250394412 -0.3318422276269556" stress="0.0 0.0 0.0 0.0 0.0 0.0 0.0 0.0 0.0" pbc="T T T"
H        9.69119200       7.05303604       9.14403353      -0.04632239      -0.10765694      -0.03360786       0.00389313      -0.00527160      -0.00064205       0.06560426
C        8.74881677       7.65068052       7.31707408      -0.81311596      -0.02651132      -0.25536096      -0.00191516      -0.00311957       0.00923540      -0.05662547
C       10.09253280       7.85605896       6.67759011       1.06481274      -0.22322359       1.01789357       0.01108750       0.00605280       0.00752498       0.58427068
H        7.55313994       6.64256863      10.33785033       0.12082798      -0.06845600      -0.10392086       0.00558338       0.00395144      -0.01274759       0.04701355
O       10.09235044       8.30516292       5.41517885      -0.99246803      -0.14966402       0.72691059       0.00238444       0.00635125      -0.00344433      -0.49229389
C        6.33777143       7.64194933       7.33125774      -0.08174986       0.82957978       0.35270463      -0.00467921       0.01204064       0.00857589      -0.02994984
C        5.02112274       7.87393671       6.67976313      -1.41299216       0.20997021      -0.52359633       0.00516232       0.01093657       0.00016574       0.58045853
O        5.11829965       8.40773686       5.45463728       0.79907664      -0.69459992      -0.58933509       0.00428336      -0.01209291      -0.01058004      -0.51342378
O        3.96299362       7.62244910       7.19203623       1.66604527       0.44497279       0.23723748      -0.00887735       0.00190311      -0.00031319      -0.52266042
O       11.11241341       7.63001780       7.26496193      -0.84454013       0.70923573      -0.67747054       0.00883954      -0.00240824      -0.00061214      -0.49858382
C        8.74177482       7.21270248       8.64465160      -0.42848429      -0.58140586       0.05142186       0.00090323      -0.00999013       0.00678983       0.01019823