18
Lattice="15.099991252438835 0.0 0.0 0.0 15.099991252438835 0.0 0.0 0.0 15.099991252438835" Properties=species:S:1:pos:R:3:momenta:R:3:forces:R:3:charge:R:1 energy=-1059.8477838455387 free_energy=-1059.8477838455387 dipole="-0.8816444768531084 0.5652673019003746 -0.09575959391948531" stress="0.0 0.0 0.0 0.0 0.0 0.0 0.0 0.0 0.0" pbc="T T T"
H        9.66697362       6.93523293       9.19455805       0.04447219       0.11760759       0.06207723       0.14319175       0.09418281      -0.27797212       0.06185939
C        8.77185974       7.65185460       7.33505924      -0.17587623      -0.67660632       0.12809169      -0.14208370      -0.05348744       0.02822986      -0.05529810
C       10.09608458       7.83457820       6.64039397       1.88173178      -0.43118905      -0.07215096      -0.05890391      -0.01090235       0.04947714       0.58478314
H        7.53985852       6.51248343      10.28170186      -0.03720817      -0.05975088       0.02505507       0.02140037       0.02801643       0.10701861       0.04644937
O       10.10222898       8.68828507       5.60553555       0.21212479       0.71250747      -0.30914789      -0.10510331      -0.00078741       0.04499942      -0.49165350
C        6.34010239       7.65390549       7.32902208       0.57951094      -0.46500972       0.61657105       0.08814751      -0.11486286       0.09761636      -0.02903956
C        4.99752850       7.80535500       6.69162011      -1.32121400       0.07636614       0.22334515       0.24130710       0.16395137      -0.16470639       0.58364220
O        5.00751906       8.57037356       5.58996839       0.26281206       0.18564364      -0.34198331       0.27497768      -0.02182950       0.10224463      -0.51366426
O        4.00539679       7.29461271       7.13214726       0.27723353       0.31387292      -0.14593655      -0.16788138       0.05571482      -0.03570749      -0.51893748
O       11.08485269       7.25596913       6.98316647      -1.07950406       0.05807099      -0.01883408       0.05739579      -0.07040544       0.12972750      -0.49538736
C        8.75790050       7.15859206       8.64594215       0.29791723       0.27574189      -0.32149187      -0.10325200      -0.02223689      -0.05557027       0.00894981
H        5.41371559       6.99171174       9.14740410       0.07207250       0.10761391       0.17061748      -0.11916521      -0.01905755      -0.00074073       0.06277935
H        7.54171660       8.19076441       5.64471313      -0.32640388       0.08595597       0.02755559       0.00342969       0.06646079      -0.05171489       0.04423496
C        7.55583047       7.88000072       6.68329136      -0.56058374      -0.17993621       0.37393425      -0.03125848       0.03327191      -0.03376826      -0.01460683
C        7.54866009       6.92337198       9.28116521       0.07259240       0.09913773       0.20086115       0.01785049       0.01084742       0.05772994      -0.02212159
C        6.35035244       7.18010234       8.64104426      -0.27029617      -0.35178061      -0.59519175       0.03674982      -0.07213321      -0.00187206       0.00226687
H        9.25160218       9.12358858       5.46450681       0.04928788       0.08309447      -0.01940380      -0.02296499       0.05030998      -0.05051353       0.35951999
H        4.11573536       8.67156581       5.22592316       0.02133097       0.04866008      -0.00396845      -0.13383721      -0.11705287       0.05552228       0.38622361
18
Lattice="15.099991252438835 0.0 0.0 0.0 15.099991252438835 0.0 0.0 0.0 15.099991252438835" Properties=species:S:1:pos:R:3:momenta:R:3:forces:R:3:charge:R:1 energy=-1059.883888145764 free_energy=-1059.883888145764 dipole="-0.8500046791940412 0.5429296742252311 -0.09120423540591428" stress="0.0 0.0 0.0 0.0 0.0 0.0 0.0 0.0 0.0" pbc="T T T"
H        9.69544490       6.95720663       9.12576286       0.04447219       0.11760759       0.06207723       0.00762792      -0.02300528       0.01718726       0.06293301
C        8.75370690       7.64078810       7.33242131      -0.17587623      -0.67660632       0.12809169       0.00636446       0.01097535      -0.08463245      -0.05519099
C       10.08226013       7.82782801       6.65285266       1.88173178      -0.43118905      -0.07215096       0.03758890       0.00116563       0.03434619       0.58472641
H        7.54779868       6.52346766      10.30630135      -0.03720817      -0.05975088       0.02505507       0.01151282       0.03009101       0.06464484       0.04742114
O       10.08912901       8.68380565       5.61894465       0.21212479       0.71250747      -0.30914789       0.01439405      -0.00018194      -0.00328816      -0.49283036
C        6.34658826       7.63567570       7.33619115       0.57951094      -0.46500972       0.61657105      -0.04890805       0.01391718      -0.04630917      -0.02864079
C        5.01963467       7.81436185       6.68655546      -1.32121400       0.07636614       0.22334515      -0.12949014       0.00039951       0.02280064       0.58027000
O        5.03743630       8.57644211       5.58687954       0.26281206       0.18564364      -0.34198331       0.07658110      -0.00495415      -0.03209468      -0.51145049
O        4.00235164       7.32884824       7.10862662       0.27723353       0.31387292      -0.14593655       0.03814166       0.03146778       0.03257936      -0.52459795
O       11.07385029       7.25591391       7.00694445      -1.07950406       0.05807099      -0.01883408      -0.11184299       0.04870206       0.02108132      -0.49594289
C        8.74554992       7.15182527       8.64097417       0.29791723       0.27574189      -0.32149187       0.03524691       0.01062182      -0.05964322       0.00782083
H        5.39909843       6.98651215       9.14115386       0.07207250       0.10761391       0.17061748       0.00600726      -0.04156467      -0.00120692       0.06342189
H        7.53761124       8.20736998       5.63922084      -0.32640388       0.08595597       0.02755559      -0.05295192       0.01654100       0.06320518       0.04583783
C        7.54881931       7.88140546       6.67584205      -0.56058374      -0.17993621       0.37393425      -0.04673892      -0.04345783       0.01496694      -0.01383006
C        7.54732431       6.91904880       9.29894870       0.07259240       0.09913773       0.20086115       0.05899841      -0.01432002      -0.04701441      -0.02023954
C        6.34909259       7.16122490       8.64863738      -0.27029617      -0.35178061      -0.59519175       0.01982673      -0.00225714      -0.00694580       0.00292840
H        9.24678525       9.13054129       5.45817713       0.04928788       0.08309447      -0.01940380       0.00726597      -0.03436440       0.03003704       0.36057036
H        4.12543627       8.64008205       5.25272900       0.02133097       0.04866008      -0.00396845       0.07037582       0.00022407      -0.01971397       0.38679322
18
Lattice="15.099991252438835 0.0 0.0 0.0 15.099991252438835 0.0 0.0 0.0 15.099991252438835" Properties=species:S:1:pos:R:3:momenta:R:3:forces:R:3:charge:R:1 energy=-1059.891308902678 free_energy=-1059.891308902678 dipole="-0.8471585293799907 0.5387771468312402 -0.10506936205884014" stress="0.0 0.0 0.0 0.0 0.0 0.0 0.0 0.0 0.0" pbc="T T T"
H        9.70372743       6.95655428       9.10984912       0.04447219       0.11760759       0.06207723      -0.02010381       0.00095126      -0.02014590       0.06359859
C        8.74423901       7.63715368       7.31894843      -0.17587623      -0.67660632       0.12809169       0.01554065      -0.01417577       0.03721164      -0.05619044
C       10.07567889       7.83290878       6.65502212       1.88173178      -0.43118905      -0.07215096       0.00427377      -0.04273375      -0.00820415       0.58468461
H        7.55779094       6.54337145      10.31508446      -0.03720817      -0.05975088       0.02505507       0.04643393       0.00992391      -0.05536199       0.04706108
O       10.09277839       8.68552908       5.61955377       0.21212479       0.71250747      -0.30914789      -0.00738917      -0.00195199       0.02746147      -0.49184233
C        6.33715142       7.62827508       7.33977396       0.57951094      -0.46500972       0.61657105       0.04480044      -0.02032196       0.01301809      -0.02893665
C        5.01448620       7.81996068       6.69098152      -1.32121400       0.07636614       0.22334515       0.00676892      -0.05281021       0.03654660       0.58044332
O        5.05910841       8.56886007       5.58254935       0.26281206       0.18564364      -0.34198331      -0.04227499      -0.04014987       0.02166155      -0.51175889
O        3.99145758       7.34936747       7.11357246       0.27723353       0.31387292      -0.14593655      -0.02617873       0.07564491      -0.01244239      -0.52368195
O       11.05912777       7.26179295       7.02980557      -1.07950406       0.05807099      -0.01883408       0.03960723       0.04598419      -0.01835299      -0.49659330
C        8.75068780       7.14840841       8.62753807       0.29791723       0.27574189      -0.32149187      -0.03292859      -0.02848423       0.05054400       0.00837501
H        5.40371467       6.97032569       9.14007510       0.07207250       0.10761391       0.17061748       0.02740061      -0.03083303       0.05206425       0.06288796
H        7.51576527       8.22053927       5.64794954      -0.32640388       0.08595597       0.02755559      -0.04073189       0.02139134      -0.06548501       0.04586513
C        7.53428098       7.87393485       6.67414159      -0.56058374      -0.17993621       0.37393425       0.04341268       0.04918052       0.01096128      -0.01338695
C        7.55798648       6.91378539       9.29499570       0.07259240       0.09913773       0.20086115      -0.04760257       0.02783347       0.01749615      -0.02039973
C        6.35405130       7.15154329       8.65013351      -0.27029617      -0.35178061      -0.59519175      -0.02892334      -0.04048609       0.02491729       0.00256135
H        9.24491585       9.12298667       5.46410016       0.04928788       0.08309447      -0.01940380       0.00463239       0.00294456      -0.02749045       0.36047352
H        4.15096972       8.63705069       5.24308874       0.02133097       0.04866008      -0.00396845       0.01326246       0.03809277      -0.08439945       0.38683970
18
Lattice="15.099991252438835 0.0 0.0 0.0 15.099991252438835 0.0 0.0 0.0 15.099991252438835" Properties=species:S:1:pos:R:3:momenta:R:3:forces:R:3:charge:R:1 energy=-1059.8966601918873 free_energy=-1059.8966601918873 dipole="-0.8422007035193044 0.5183858569411811 -0.12673289477129854" stress="0.0 0.0 0.0 0.0 0.0 0.0 0.0 0.0 0.0" pbc="T T T"
H        9.70411187       6.95325003       9.09844219       0.04447219       0.11760759       0.06207723      -0.00435999      -0.00703960       0.00591311       0.06394161
C        8.74027517       7.63188116       7.31318409      -0.17587623      -0.67660632       0.12809169      -0.01206154       0.00302916       0.00245024      -0.05632668
C       10.07431185       7.83179684       6.65747445       1.88173178      -0.43118905      -0.07215096       0.01015844       0.03955763      -0.00491351       0.58485213
H        7.57618255       6.55663323      10.31686493      -0.03720817      -0.05975088       0.02505507      -0.00943652      -0.03081485       0.01634160       0.04699391
O       10.09298666       8.68642225       5.62456983       0.21212479       0.71250747      -0.30914789       0.00127640       0.01186161      -0.02912571      -0.49195834
C        6.33366384       7.61745625       7.34302377       0.57951094      -0.46500972       0.61657105      -0.02891309      -0.00857428       0.01701096      -0.02924512
C        5.00840372       7.81822530       6.69671361      -1.32121400       0.07636614       0.22334515       0.01866905       0.04232127      -0.02681173       0.58097248
O        5.07138596       8.55370232       5.57890887       0.26281206       0.18564364      -0.34198331       0.02277628      -0.01365617      -0.03855973      -0.51310014
O        3.97450733       7.37941158       7.12434689       0.27723353       0.31387292      -0.14593655      -0.00412756       0.01885057       0.02939436      -0.52219174
O       11.06220071       7.27540026       7.04186257      -1.07950406       0.05807099      -0.01883408       0.03112505      -0.00599881      -0.00750964      -0.49679603
C        8.74881376       7.14353548       8.62175433       0.29791723       0.27574189      -0.32149187      -0.01199227       0.01771832      -0.00606129       0.00807147
H        5.41039082       6.94760753       9.15502696       0.07207250       0.10761391       0.17061748      -0.00443932      -0.00867331      -0.00404230       0.06273727
H        7.49082963       8.23325600       5.64803241      -0.32640388       0.08595597       0.02755559       0.03593825      -0.00876995       0.03979385       0.04633903
C        7.52826903       7.87875352       6.67415584      -0.56058374      -0.17993621       0.37393425      -0.04101264      -0.03143657       0.00861248      -0.01321026
C        7.55978642       6.91554106       9.29515833       0.07259240       0.09913773       0.20086115       0.01643375      -0.01716723       0.01105412      -0.02061144
C        6.35252009       7.13752836       8.65301570      -0.27029617      -0.35178061      -0.59519175      -0.00162546       0.00757874       0.01113364       0.00290542
H        9.24390313       9.11756760       5.46029208       0.04928788       0.08309447      -0.01940380      -0.01147269       0.00060972      -0.02615736       0.36041232
H        4.17537555       8.64437899       5.21433632       0.02133097       0.04866008      -0.00396845      -0.00693615      -0.00939625       0.00147691       0.38621410
18
Lattice="15.099991252438835 0.0 0.0 0.0 15.099991252438835 0.0 0.0 0.0 15.099991252438835" Properties=species:S:1:pos:R:3:momenta:R:3:forces:R:3:charge:R:1 energy=-1059.899145628682 free_energy=-1059.899145628682 dipole="-0.8387032022643177 0.5077912258508207 -0.13347178308577234" stress="0.0 0.0 0.0 0.0 0.0 0.0 0.0 0.0 0.0" pbc="T T T"
H        9.70212635       6.95039188       9.09410011       0.04447219       0.11760759       0.06207723       0.02404459       0.00277841       0.03490835       0.06357126
C        8.73817129       7.63167483       7.31314282      -0.17587623      -0.67660632       0.12809169       0.03155857       0.00846462       0.01147597      -0.05663658
C       10.07568007       7.84033410       6.65623635       1.88173178      -0.43118905      -0.07215096      -0.02762339      -0.01896154       0.00057219       0.58468058
H        7.58199342       6.54929132      10.32055558      -0.03720817      -0.05975088       0.02505507      -0.01398098      -0.02007122      -0.01146972       0.04706379
O       10.09157713       8.69070531       5.61904754       0.21212479       0.71250747      -0.30914789      -0.02571722      -0.00663072       0.01289987      -0.49162727
C        6.32770748       7.61152061       7.34980610       0.57951094      -0.46500972       0.61657105       0.03159050       0.02909289      -0.02385189      -0.02917046
C        5.00789793       7.82630496       6.69669512      -1.32121400       0.07636614       0.22334515      -0.03114928      -0.02648606       0.02708646       0.58075262
O        5.08180661       8.53798046       5.56327510       0.26281206       0.18564364      -0.34198331       0.00664766      -0.02146388       0.01146290      -0.51314060
O        3.96770345       7.41166243       7.13465723       0.27723353       0.31387292      -0.14593655       0.00049932       0.05238898      -0.00733910      -0.52239695
O       11.06717242       7.28878470       7.04045847      -1.07950406       0.05807099      -0.01883408      -0.05511062       0.03561654      -0.00247986      -0.49616195
C        8.74630802       7.14431624       8.62166343       0.29791723       0.27574189      -0.32149187       0.02971950      -0.02563769       0.00781092       0.00791704
H        5.41041747       6.93298428       9.16322642       0.07207250       0.10761391       0.17061748      -0.01870914       0.00877884       0.00181619       0.06271493
H        7.49086567       8.23612071       5.65869191      -0.32640388       0.08595597       0.02755559      -0.01570891      -0.01365890      -0.01579900       0.04585400
C        7.52180145       7.87138625       6.68001082      -0.56058374      -0.17993621       0.37393425       0.05754331       0.03738163      -0.00056315      -0.01291299
C        7.56024455       6.91043535       9.29896235       0.07259240       0.09913773       0.20086115      -0.00389840      -0.00663970      -0.02411186      -0.02079078
C        6.35005851       7.13082687       8.66036742      -0.27029617      -0.35178061      -0.59519175      -0.00127527      -0.00425497      -0.02553509       0.00335721
H        9.24033426       9.11427704       5.44595572       0.04928788       0.08309447      -0.01940380      -0.00906789      -0.00413546      -0.01619209       0.36066139
H        4.18605203       8.64335045       5.20031067       0.02133097       0.04866008      -0.00396845       0.02063765      -0.02656178       0.01930891       0.38626476
18
Lattice="15.099991252438835 0.0 0.0 0.0 15.099991252438835 0.0 0.0 0.0 15.099991252438835" Properties=species:S:1:pos:R:3:momenta:R:3:forces:R:3:charge:R:1 energy=-1059.9033766391071 free_energy=-1059.9033766391071 dipole="-0.834029374242846 0.46633993263196694 -0.14628412303712754" stress="0.0 0.0 0.0 0.0 0.0 0.0 0.0 0.0 0.0" pbc="T T T"
H        9.70808665       6.94587948       9.10528097       0.04447219       0.11760759       0.06207723      -0.03487958       0.00429321      -0.01319447       0.06388720
C        8.74043209       7.63542029       7.32187509      -0.17587623      -0.67660632       0.12809169      -0.04493239       0.00413055       0.00450949      -0.05537403
C       10.06620950       7.85670468       6.65331781       1.88173178      -0.43118905      -0.07215096       0.01831549       0.01546810       0.02634110       0.58496609
H        7.58232210       6.52314274      10.31594894      -0.03720817      -0.05975088       0.02505507      -0.00651755      -0.01780273      -0.02396893       0.04668905
O       10.07538426       8.69717799       5.60803023       0.21212479       0.71250747      -0.30914789      -0.01811722      -0.01929528      -0.00555144      -0.49231426
C        6.32622473       7.61025986       7.35762495       0.57951094      -0.46500972       0.61657105      -0.01386242      -0.02149383       0.00830660      -0.02975721
C        5.00826054       7.83996999       6.70306623      -1.32121400       0.07636614       0.22334515       0.03719913       0.02775191       0.00623751       0.58043853
O        5.10666707       8.49613886       5.53816384       0.26281206       0.18564364      -0.34198331      -0.00390579      -0.00214930       0.00448391      -0.51373536
O        3.95124578       7.49351911       7.15857525       0.27723353       0.31387292      -0.14593655       0.03794668       0.00064749       0.04779218      -0.52205201
O       11.06466671       7.32136022       7.04085247      -1.07950406       0.05807099      -0.01883408       0.05244220      -0.01154227       0.01247209      -0.49705372
C        8.75227474       7.13542365       8.62693916       0.29791723       0.27574189      -0.32149187      -0.02928226       0.01781331       0.00471884       0.00882456
H        5.40830649       6.91423759       9.17075837       0.07207250       0.10761391       0.17061748       0.05922245       0.03154761      -0.04954905       0.06266966
H        7.48965920       8.23470587       5.67032795      -0.32640388       0.08595597       0.02755559       0.00057015       0.01650549      -0.02201416       0.04609826
C        7.52329821       7.87316322       6.69221551      -0.56058374      -0.17993621       0.37393425      -0.05137772       0.00529560      -0.00919438      -0.01286899
C        7.56206858       6.89364803       9.29700979       0.07259240       0.09913773       0.20086115       0.00098079      -0.01790965       0.00841612      -0.02119906
C        6.34771662       7.11796608       8.66417801      -0.27029617      -0.35178061      -0.59519175       0.03392586       0.00222530      -0.00257051       0.00353791
H        9.22347715       9.10714904       5.40949857       0.04928788       0.08309447      -0.01940380      -0.03303791      -0.01833874       0.02483518       0.36105858
H        4.21161768       8.62648106       5.18350004       0.02133097       0.04866008      -0.00396845      -0.00468989      -0.01714675      -0.02207007       0.38618480
18
Lattice="15.099991252438835 0.0 0.0 0.0 15.099991252438835 0.0 0.0 0.0 15.099991252438835" Properties=species:S:1:pos:R:3:momenta:R:3:forces:R:3:charge:R:1 energy=-1059.9066922457346 free_energy=-1059.9066922457346 dipole="-0.8382409651674546 0.43657542539079125 -0.15681199079601174" stress="0.0 0.0 0.0 0.0 0.0 0.0 0.0 0.0 0.0" pbc="T T T"
H        9.70281448       6.94529095       9.10945154       0.04447219       0.11760759       0.06207723       0.04600213       0.00359240      -0.00790644       0.06369148
C        8.73750716       7.64186817       7.32749359      -0.17587623      -0.67660632       0.12809169       0.04293814      -0.00669877      -0.01927260      -0.05561458
C       10.06325122       7.86824432       6.65864895       1.88173178      -0.43118905      -0.07215096       0.01459288      -0.00883604      -0.01980290       0.58482848
H        7.57882974       6.49434364      10.30878877      -0.03720817      -0.05975088       0.02505507       0.01420858      -0.02308547       0.02244311       0.04718321
O       10.05733132       8.69342920       5.60088680       0.21212479       0.71250747      -0.30914789       0.01304932       0.00523544      -0.01351185      -0.49284092
C        6.32930219       7.60946289       7.35993309       0.57951094      -0.46500972       0.61657105       0.01102921       0.03931122      -0.02637304      -0.02968772
C        5.01431906       7.85489201       6.71214278      -1.32121400       0.07636614       0.22334515      -0.04636334      -0.01396700      -0.00642004       0.58041337
O        5.11860928       8.46836808       5.52442139       0.26281206       0.18564364      -0.34198331      -0.01735163      -0.00081867       0.00983828      -0.51397291
O        3.95436496       7.54977599       7.19061512       0.27723353       0.31387292      -0.14593655       0.02275079       0.01990568       0.00920818      -0.52232253
O       11.06955352       7.34562889       7.04494120      -1.07950406       0.05807099      -0.01883408      -0.02726682       0.02492103       0.02586286      -0.49693843
C        8.75011939       7.13496984       8.62938578       0.29791723       0.27574189      -0.32149187       0.02302705      -0.00760139      -0.01496760       0.00900554
H        5.41631163       6.91267277       9.16338257       0.07207250       0.10761391       0.17061748      -0.07446696      -0.01759726       0.03549985       0.06280404
H        7.48834769       8.23903923       5.67091329      -0.32640388       0.08595597       0.02755559       0.00343016       0.01267465       0.00757363       0.04652948
C        7.52212275       7.87677893       6.69319677      -0.56058374      -0.17993621       0.37393425       0.04677637      -0.00221297      -0.01654709      -0.01262639
C        7.56362800       6.87761438       9.29617945       0.07259240       0.09913773       0.20086115      -0.00843092       0.01228971      -0.00807054      -0.02099283
C        6.35470483       7.11112548       8.66226462      -0.27029617      -0.35178061      -0.59519175      -0.04130440       0.01309624      -0.01843675       0.00351498
H        9.20069697       9.09247401       5.39805286       0.04928788       0.08309447      -0.01940380      -0.01178310      -0.03189815       0.04182945       0.36084200
H        4.22610389       8.60636900       5.16646459       0.02133097       0.04866008      -0.00396845      -0.01083745      -0.01831066      -0.00094652       0.38618373
18
Lattice="15.099991252438835 0.0 0.0 0.0 15.099991252438835 0.0 0.0 0.0 15.099991252438835" Properties=species:S:1:pos:R:3:momenta:R:3:forces:R:3:charge:R:1 energy=-1059.9089396719935 free_energy=-1059.9089396719935 dipole="-0.8448101934433131 0.3958286421496863 -0.17269606388167527" stress="0.0 0.0 0.0 0.0 0.0 0.0 0.0 0.0 0.0" pbc="T T T"
H        9.70865417       6.94578998       9.10663670       0.04447219       0.11760759       0.06207723      -0.02528856      -0.00519183      -0.01308721       0.06392383
C        8.74050115       7.64335373       7.32802615      -0.17587623      -0.67660632       0.12809169      -0.00683259      -0.01043204       0.00119326      -0.05586432
C       10.06383515       7.87853411       6.65877118       1.88173178      -0.43118905      -0.07215096      -0.00066228      -0.00849628       0.01922405       0.58461429
H        7.58130233       6.46778268      10.30217826      -0.03720817      -0.05975088       0.02505507       0.00169918       0.02103565      -0.03945991       0.04701528
O       10.04597577       8.69143181       5.59144178       0.21212479       0.71250747      -0.30914789       0.00004369      -0.01823234       0.02837683      -0.49247405
C        6.33188920       7.61426890       7.36139024       0.57951094      -0.46500972       0.61657105      -0.00494806      -0.00643450       0.02102533      -0.03000798
C        5.01632371       7.86870060       6.71862328      -1.32121400       0.07636614       0.22334515       0.00157885       0.01955997       0.01123232       0.58065782
O        5.12484616       8.44151939       5.51159095       0.26281206       0.18564364      -0.34198331      -0.02388452      -0.01233385      -0.01047340      -0.51398380
O        3.95628941       7.60684971       7.22099881       0.27723353       0.31387292      -0.14593655      -0.01630207       0.00584220      -0.02383977      -0.52215824
O       11.07394472       7.37351945       7.05708883      -1.07950406       0.05807099      -0.01883408       0.03143365       0.02217239      -0.00531376      -0.49690356
C        8.75191901       7.13104431       8.62878898       0.29791723       0.27574189      -0.32149187      -0.00621424      -0.00924452      -0.00991601       0.00918454
H        5.41004495       6.90545299       9.16256033       0.07207250       0.10761391       0.17061748       0.03362305       0.00908356      -0.02490668       0.06318318
H        7.48856447       8.24805539       5.67376521      -0.32640388       0.08595597       0.02755559       0.00993405      -0.00084487       0.01403362       0.04652930
C        7.52550157       7.87855513       6.69366309      -0.56058374      -0.17993621       0.37393425      -0.01246915       0.01046806       0.02201864      -0.01306082
C        7.56315827       6.86623356       9.29316273       0.07259240       0.09913773       0.20086115       0.01376349       0.00147235      -0.01821671      -0.02096484
C        6.35187163       7.10648653       8.66151393      -0.27029617      -0.35178061      -0.59519175       0.02443957       0.00073856       0.01732732       0.00381665
H        9.17795076       9.07076660       5.39774462       0.04928788       0.08309447      -0.01940380       0.01293263      -0.00913849       0.00090189       0.36028746
H        4.23534567       8.58400292       5.14921810       0.02133097       0.04866008      -0.00396845      -0.03284667      -0.01002402       0.00988018       0.38620527
18
Lattice="15.099991252438835 0.0 0.0 0.0 15.099991252438835 0.0 0.0 0.0 15.099991252438835" Properties=species:S:1:pos:R:3:momenta:R:3:forces:R:3:charge:R:1 energy=-1059.9101921543204 free_energy=-1059.9101921543204 dipole="-0.8508227196278648 0.37469755443935504 -0.1728030973405531" stress="0.0 0.0 0.0 0.0 0.0 0.0 0.0 0.0 0.0" pbc="T T T"
H        9.70942184       6.94316852       9.10344753       0.04447219       0.11760759       0.06207723       0.00585067      -0.02789100       0.00580111       0.06407556
C        8.74310693       7.64059985       7.32708912      -0.17587623      -0.67660632       0.12809169      -0.00768082      -0.00154290       0.00005276      -0.05618695
C       10.06765362       7.88023593       6.66280517       1.88173178      -0.43118905      -0.07215096       0.01388886       0.01182169       0.00037451       0.58464284
H        7.58311518       6.45863128      10.29246990      -0.03720817      -0.05975088       0.02505507      -0.00032763       0.00194524       0.02044888       0.04705928
O       10.04254217       8.68678070       5.59210822       0.21212479       0.71250747      -0.30914789       0.01276241       0.01308563      -0.01314293      -0.49228274
C        6.33205850       7.62136122       7.36252492       0.57951094      -0.46500972       0.61657105      -0.00525781       0.00673665      -0.00556393      -0.02987676
C        5.01467442       7.87821548       6.72181577      -1.32121400       0.07636614       0.22334515      -0.00037232      -0.00613114      -0.00473676       0.58050664
O        5.11855664       8.42910475       5.50429816       0.26281206       0.18564364      -0.34198331      -0.01047930      -0.00273998      -0.00157913      -0.51370247
O        3.95429340       7.62989446       7.23081486       0.27723353       0.31387292      -0.14593655       0.01041155       0.00542334       0.00216703      -0.52222358
O       11.08367235       7.39068563       7.06531288      -1.07950406       0.05807099      -0.01883408      -0.00367513      -0.00500919       0.02169475      -0.49698352
C        8.75375452       7.12635334       8.62523750       0.29791723       0.27574189      -0.32149187      -0.00175562      -0.00511134       0.00962750       0.00922609