18
Lattice="15.099991252438835 0.0 0.0 0.0 15.099991252438835 0.0 0.0 0.0 15.099991252438835" Properties=species:S:1:pos:R:3:momenta:R:3:forces:R:3:charge:R:1 energy=-1059.8365406544433 free_energy=-1059.8365406544433 dipole="-0.852834953523774 0.6311355767723538 -0.09423547962596728" stress="0.0 0.0 0.0 0.0 0.0 0.0 0.0 0.0 0.0" pbc="T T T"
H        9.70927248       7.06299047       9.15145692       0.10440403       0.10733091      -0.04198505      -0.02622286      -0.16311511      -0.07812983       0.06211711
C        8.75868349       7.64830902       7.31547588       0.49356363      -0.04298384      -0.93141238      -0.19053711       0.09019059      -0.02996042      -0.05451623
C       10.08863015       7.84144635       6.62655340      -0.98745569       1.02342568      -0.50613422       0.22772405      -0.14086197       0.19195898       0.58469263
H        7.52391358       6.54736636      10.30393465      -0.01277290       0.13898146       0.04878215       0.25120744       0.06772230       0.03446767       0.04633605
O       10.12827619       8.70767051       5.60727171       0.05009101      -0.04519704       0.41315659      -0.09318639       0.08772717      -0.09125539      -0.49068896
C        6.32917131       7.62761958       7.34953300      -1.09509609      -0.36561352      -0.10193012      -0.02167958       0.05100803      -0.20540626      -0.02901042
C        4.99610211       7.80520183       6.70075657       0.83472370       0.84161862      -0.81314221       0.01610263       0.09926548      -0.01063550       0.58210493
O        5.01535482       8.56722371       5.60174558       0.42939619      -0.26338895       0.33111924       0.16662738       0.12720393      -0.10758437      -0.51219163
O        3.98220973       7.32099903       7.12485458      -0.99495868      -0.09122189       0.35020731      -0.08939991      -0.03865324       0.12021556      -0.52241405
O       11.07994464       7.25434830       6.96719050       0.99090858      -1.09634447       0.07221764      -0.35893282       0.05075686       0.08833093      -0.49751497
C        8.76185868       7.17787448       8.63462467      -0.16491104       0.22235192      -0.08134544      -0.21334865       0.01871229       0.00950832       0.00829293
H        5.40942363       7.03580522       9.18990960      -0.05682763       0.00665061      -0.06947053       0.01313853      -0.17416180      -0.06164822       0.06229947
H        7.47353165       8.26457721       5.68453407       0.10837415       0.04825322       0.11825853       0.12214818       0.01399191      -0.36169384       0.04549115
C        7.53011783       7.87664661       6.68668344       0.10023590      -0.02155923       0.08597102       0.09722483       0.00111934       0.18888695      -0.01430591
C        7.55885238       6.92782596       9.28927691       0.11395450       0.16683580       0.16010411       0.00919572       0.05518764       0.04006634      -0.02167333
C        6.34626856       7.15948671       8.65753042       0.05533425      -0.72133977       0.90999550       0.13674310       0.01211806       0.14861438       0.00237583
H        9.31967626       9.20545158       5.43866322       0.08197787       0.08196903       0.02494095      -0.12659764      -0.03806230       0.04613974       0.36231843
H        4.11038468       8.67986216       5.26061793      -0.05094179       0.01023147       0.03066689       0.07979310      -0.12014919       0.07812495       0.38628697
18
Lattice="15.099991252438835 0.0 0.0 0.0 15.099991252438835 0.0 0.0 0.0 15.099991252438835" Properties=species:S:1:pos:R:3:momenta:R:3:forces:R:3:charge:R:1 energy=-1059.8830503743673 free_energy=-1059.8830503743673 dipole="-0.8297703580831455 0.5927836178135105 -0.09369910259664324" stress="0.0 0.0 0.0 0.0 0.0 0.0 0.0 0.0 0.0" pbc="T T T"
H        9.69498601       7.02185858       9.12657974       0.10440403       0.10733091      -0.04198505       0.05119092      -0.04864383      -0.06157232       0.06240691
C        8.73976200       7.67049376       7.31728066       0.49356363      -0.04298384      -0.93141238      -0.01560842       0.01334203      -0.01891486      -0.05579643
C       10.07239153       7.84752271       6.64236565      -0.98745569       1.02342568      -0.50613422      -0.03219392      -0.01593228      -0.00650510       0.58490495
H        7.58242789       6.56340523      10.31910629      -0.01277290       0.13898146       0.04878215      -0.03442951       0.05242329      -0.04687905       0.04717869
O       10.10997610       8.70763755       5.61159185       0.05009101      -0.04519704       0.41315659      -0.03228389      -0.00534812       0.04815165      -0.49278635
C        6.33250981       7.63298739       7.34206563      -1.09509609      -0.36561352      -0.10193012       0.05133800       0.06340578       0.04580989      -0.02917455
C        5.00210877       7.81649797       6.70348680       0.83472370       0.84161862      -0.81314221       0.06418835       0.01437497       0.00539238       0.58062855
O        5.03676504       8.57797829       5.60214093       0.42939619      -0.26338895       0.33111924      -0.03688909      -0.04584496       0.02847031      -0.51233740
O        3.98470737       7.33871801       7.12997837      -0.99495868      -0.09122189       0.35020731      -0.03218747       0.05983208      -0.00902441      -0.52314970
O       11.04464299       7.24624349       6.99996367       0.99090858      -1.09634447       0.07221764      -0.01324096       0.06219966      -0.00059351      -0.49587702
C        8.74584485       7.18665719       8.62971411      -0.16491104       0.22235192      -0.08134544       0.03808011       0.03892910      -0.03391128       0.00782657
H        5.41453250       6.99228908       9.17281974      -0.05682763       0.00665061      -0.06947053      -0.02218286      -0.03520205      -0.05684208       0.06241613
H        7.50593284       8.25093153       5.64056176       0.10837415       0.04825322       0.11825853      -0.05069262      -0.05795192       0.10072621       0.04607011
C        7.52635539       7.89821586       6.66970995       0.10023590      -0.02155923       0.08597102       0.02556507      -0.02207338       0.06354719      -0.01220136
C        7.55944477       6.94080569       9.30182977       0.11395450       0.16683580       0.16010411       0.02932840       0.04349165      -0.02644178      -0.02062540
C        6.35327986       7.16978852       8.65967470       0.05533425      -0.72133977       0.90999550       0.01203600      -0.07011304       0.00094033       0.00286318
H        9.28861622       9.19241644       5.45288919       0.08197787       0.08196903       0.02494095      -0.00744262      -0.06281175       0.03976148       0.36131446
H        4.12738822       8.65625780       5.26885425      -0.05094179       0.01023147       0.03066689       0.00542452       0.01592275      -0.07211507       0.38633868
18
Lattice="15.099991252438835 0.0 0.0 0.0 15.099991252438835 0.0 0.0 0.0 15.099991252438835" Properties=species:S:1:pos:R:3:momenta:R:3:forces:R:3:charge:R:1 energy=-1059.890474983203 free_energy=-1059.890474983203 dipole="-0.8318917628572974 0.5685196304966214 -0.10622709603113695" stress="0.0 0.0 0.0 0.0 0.0 0.0 0.0 0.0 0.0" pbc="T T T"
H        9.70661375       7.00330045       9.10554339       0.10440403       0.10733091      -0.04198505       0.03459167       0.00464850       0.01289790       0.06350079
C        8.73931104       7.67315163       7.31783600       0.49356363      -0.04298384      -0.93141238       0.01370321      -0.02010248      -0.00686395      -0.05590363
C       10.06767569       7.84743726       6.64451316      -0.98745569       1.02342568      -0.50613422       0.05495234       0.01998191       0.00572433       0.58495164
H        7.58569539       6.57831408      10.31521124      -0.01277290       0.13898146       0.04878215      -0.00218136      -0.02149534       0.07406388       0.04697658
O       10.10266958       8.70892873       5.61745795       0.05009101      -0.04519704       0.41315659      -0.00833627       0.00731254      -0.01577521      -0.49195694
C        6.33285444       7.64237842       7.35066192      -1.09509609      -0.36561352      -0.10193012      -0.02032677      -0.02136322      -0.03285136      -0.02915239
C        5.00430161       7.82414384       6.70638908       0.83472370       0.84161862      -0.81314221      -0.03383513       0.00825683       0.02287994       0.58057472
O        5.04082574       8.57503815       5.59818475       0.42939619      -0.26338895       0.33111924       0.01185957      -0.02433102      -0.00524656      -0.51223764
O        3.98290048       7.35542592       7.13510903      -0.99495868      -0.09122189       0.35020731       0.01419665       0.04978522      -0.00183129      -0.52337371
O       11.04244707       7.25513471       7.00911399       0.99090858      -1.09634447       0.07221764       0.03897004       0.00999731      -0.00745388      -0.49686333
C        8.75263172       7.19298026       8.62832737      -0.16491104       0.22235192      -0.08134544      -0.00760779      -0.03810105       0.00151939       0.00790243
H        5.41158138       6.97159811       9.15672898      -0.05682763       0.00665061      -0.06947053       0.01939022      -0.03867735       0.03332115       0.06298251
H        7.49736382       8.23799026       5.64824169       0.10837415       0.04825322       0.11825853      -0.02521753       0.02485425      -0.00963378       0.04601749
C        7.52531672       7.90136116       6.67903538       0.10023590      -0.02155923       0.08597102      -0.02317600       0.02129850      -0.03796542      -0.01296087
C        7.56616726       6.95022224       9.29970572       0.11395450       0.16683580       0.16010411      -0.02185617      -0.02165621       0.02073943      -0.02062041
C        6.35637895       7.16264178       8.66037504       0.05533425      -0.72133977       0.90999550      -0.03208917       0.05377855      -0.02286049       0.00275335
H        9.27222272       9.17752183       5.46371097       0.08197787       0.08196903       0.02494095      -0.03858173      -0.00918292      -0.00594222       0.36102284
H        4.13471481       8.65313627       5.25446738      -0.05094179       0.01023147       0.03066689       0.02554421      -0.00500403      -0.02472186       0.38638656
18
Lattice="15.099991252438835 0.0 0.0 0.0 15.099991252438835 0.0 0.0 0.0 15.099991252438835" Properties=species:S:1:pos:R:3:momenta:R:3:forces:R:3:charge:R:1 energy=-1059.8938795622616 free_energy=-1059.8938795622616 dipole="-0.8353630962094077 0.5462620818275645 -0.109992719026717" stress="0.0 0.0 0.0 0.0 0.0 0.0 0.0 0.0 0.0" pbc="T T T"
H        9.71470975       6.99621784       9.09691594       0.10440403       0.10733091      -0.04198505      -0.05807393      -0.00143627       0.01257211       0.06344937
C        8.74080971       7.66782277       7.31629321       0.49356363      -0.04298384      -0.93141238      -0.01373416      -0.01536563       0.00422288      -0.05661571
C       10.07344731       7.85163540       6.64612671      -0.98745569       1.02342568      -0.50613422      -0.03869586      -0.00944947      -0.01064140       0.58488860
H        7.58339479       6.58237428      10.32561623      -0.01277290       0.13898146       0.04878215       0.00229645       0.00609158      -0.05491237       0.04694539
O       10.09512900       8.71232617       5.61779354       0.05009101      -0.04519704       0.41315659      -0.01086977       0.01005332      -0.00005301      -0.49176203
C        6.33197825       7.64299623       7.35095797      -1.09509609      -0.36561352      -0.10193012      -0.01333772      -0.01274567       0.03647176      -0.02921063
C        5.00204834       7.83137022       6.70919473       0.83472370       0.84161862      -0.81314221       0.01060770       0.00817024      -0.01837404       0.58101211
O        5.04759614       8.56690781       5.59132755       0.42939619      -0.26338895       0.33111924       0.03521291       0.00371111      -0.04165090      -0.51256036
O        3.97582098       7.37951901       7.14236249      -0.99495868      -0.09122189       0.35020731      -0.00770915       0.02353845       0.03740833      -0.52274098
O       11.05419786       7.26862051       7.00929649       0.99090858      -1.09634447       0.07221764      -0.00455766       0.03109154       0.00557417      -0.49614164
C        8.75377604       7.18446117       8.62760136      -0.16491104       0.22235192      -0.08134544      -0.00203140       0.01063907      -0.00311123       0.00771680
H        5.41594699       6.95210632       9.15862399      -0.05682763       0.00665061      -0.06947053       0.00639801       0.03412146       0.00884278       0.06280205
H        7.48530005       8.24198617       5.64853634       0.10837415       0.04825322       0.11825853       0.03093673       0.02588775       0.00424144       0.04634743
C        7.52474051       7.90396051       6.67884691       0.10023590      -0.02155923       0.08597102      -0.00029421      -0.02597002       0.02297406      -0.01323275
C        7.56622946       6.94893078       9.30433287       0.11395450       0.16683580       0.16010411       0.02255606      -0.00900735      -0.01590428      -0.02044746
C        6.35635871       7.16558481       8.66208050       0.05533425      -0.72133977       0.90999550       0.03810765      -0.05926202       0.02595219       0.00262296
H        9.25404041       9.16388867       5.46762683       0.08197787       0.08196903       0.02494095      -0.01293652      -0.00468033      -0.01717637       0.36061966
H        4.14614785       8.64999642       5.23707940      -0.05094179       0.01023147       0.03066689       0.01612487      -0.01538776       0.00356386       0.38630718
18
Lattice="15.099991252438835 0.0 0.0 0.0 15.099991252438835 0.0 0.0 0.0 15.099991252438835" Properties=species:S:1:pos:R:3:momenta:R:3:forces:R:3:charge:R:1 energy=-1059.8987399093216 free_energy=-1059.8987399093216 dipole="-0.8437809208725947 0.49376065849629885 -0.12039437848521287" stress="0.0 0.0 0.0 0.0 0.0 0.0 0.0 0.0 0.0" pbc="T T T"
H        9.70697394       6.98445275       9.09735964       0.10440403       0.10733091      -0.04198505       0.09003281      -0.00046764       0.02227165       0.06339176
C        8.73853457       7.65163584       7.31046534       0.49356363      -0.04298384      -0.93141238       0.01445662       0.02231537       0.01294355      -0.05644908
C       10.06920599       7.85888694       6.64355349      -0.98745569       1.02342568      -0.50613422       0.00451213       0.03856965       0.00940843       0.58472663
H        7.58646509       6.58414208      10.32665226      -0.01277290       0.13898146       0.04878215       0.03879824      -0.03672693       0.01313125       0.04726711
O       10.07318129       8.72210256       5.61713107       0.05009101      -0.04519704       0.41315659      -0.01857890      -0.00715466      -0.01600162      -0.49175789
C        6.32966205       7.63688354       7.35857229      -1.09509609      -0.36561352      -0.10193012       0.02051694      -0.01460076      -0.04828409      -0.02923955
C        5.00487527       7.84657748       6.71307799       0.83472370       0.84161862      -0.81314221       0.00288701      -0.00864798       0.02235709       0.58055844
O        5.07334492       8.54348311       5.56954762       0.42939619      -0.26338895       0.33111924      -0.01008249      -0.05167698       0.03693461      -0.51322189
O        3.96666650       7.44079627       7.16389572      -0.99495868      -0.09122189       0.35020731       0.01333552       0.05095987      -0.01990777      -0.52215582
O       11.06511456       7.30629200       7.01323172       0.99090858      -1.09634447       0.07221764      -0.04338247       0.00009593       0.00865273      -0.49615175
C        8.75335416       7.17306071       8.62183758      -0.16491104       0.22235192      -0.08134544       0.03025384      -0.02816048       0.01649000       0.00821290
H        5.42668530       6.93923789       9.17291451      -0.05682763       0.00665061      -0.06947053      -0.05829639       0.01801575      -0.00150625       0.06266143
H        7.48340931       8.26107157       5.65961019       0.10837415       0.04825322       0.11825853      -0.00602300      -0.02605971       0.02998470       0.04628088
C        7.52050552       7.89725417       6.68242481       0.10023590      -0.02155923       0.08597102       0.01912462       0.01431575      -0.00327123      -0.01317434
C        7.57134880       6.93931249       9.30378370       0.11395450       0.16683580       0.16010411      -0.03880315      -0.03140097      -0.02262547      -0.02077940
C        6.36074746       7.14731021       8.66543194       0.05533425      -0.72133977       0.90999550      -0.06576946       0.05406485      -0.03180597       0.00328239
H        9.21650329       9.14130358       5.46085310       0.08197787       0.08196903       0.02494095      -0.00308680       0.01167905      -0.03223276       0.36021260
H        4.17509415       8.63690191       5.21027007      -0.05094179       0.01023147       0.03066689       0.01010493      -0.00512014       0.00346114       0.38633558
18
Lattice="15.099991252438835 0.0 0.0 0.0 15.099991252438835 0.0 0.0 0.0 15.099991252438835" Properties=species:S:1:pos:R:3:momenta:R:3:forces:R:3:charge:R:1 energy=-1059.903179646329 free_energy=-1059.903179646329 dipole="-0.8418810191910555 0.4528346573431108 -0.13339112082635413" stress="0.0 0.0 0.0 0.0 0.0 0.0 0.0 0.0 0.0" pbc="T T T"
H        9.71679526       6.97459267       9.10114748       0.10440403       0.10733091      -0.04198505      -0.04154515      -0.01049911      -0.02630443       0.06386298
C        8.74045129       7.64536126       7.31529331       0.49356363      -0.04298384      -0.93141238      -0.01749245       0.03703959       0.01301857      -0.05569048
C       10.06210244       7.87670825       6.64461062      -0.98745569       1.02342568      -0.50613422       0.01560683       0.00247060       0.01018915       0.58479534
H        7.59780896       6.57222390      10.32343975      -0.01277290       0.13898146       0.04878215      -0.02338843      -0.06087338       0.01610990       0.04678410
O       10.04781143       8.72960397       5.60979486       0.05009101      -0.04519704       0.41315659       0.00646072      -0.01014448      -0.01002627      -0.49211786
C        6.33011742       7.62611094       7.36019395      -1.09509609      -0.36561352      -0.10193012      -0.03032390       0.00738115       0.03375987      -0.02938822
C        5.00887707       7.85835695       6.71811397       0.83472370       0.84161862      -0.81314221      -0.01512909       0.00867090      -0.00531844       0.58068451
O        5.09805220       8.50948915       5.55056391       0.42939619      -0.26338895       0.33111924       0.00356577      -0.00935694      -0.03921476      -0.51354224
O        3.95689658       7.51250374       7.18589157      -0.99495868      -0.09122189       0.35020731       0.01853329       0.00877689       0.02162363      -0.52232965
O       11.06670924       7.34354350       7.01868881       0.99090858      -1.09634447       0.07221764       0.03493832       0.01258615      -0.00723559      -0.49681603
C        8.75891137       7.15372692       8.62249133      -0.16491104       0.22235192      -0.08134544      -0.01578176       0.02713672      -0.00292835       0.00873870
H        5.42016802       6.93904890       9.18052736      -0.05682763       0.00665061      -0.06947053       0.02401733       0.02951767      -0.04448279       0.06302090
H        7.48172354       8.27183775       5.67444341       0.10837415       0.04825322       0.11825853       0.01185183      -0.03271701      -0.01285840       0.04644557
C        7.52255968       7.89158717       6.68996554       0.10023590      -0.02155923       0.08597102      -0.03832885       0.00558950       0.00856697      -0.01350643
C        7.57123201       6.92044517       9.29828565       0.11395450       0.16683580       0.16010411       0.02542426      -0.00502436       0.03648558      -0.02109598
C        6.35590233       7.13899976       8.66779659       0.05533425      -0.72133977       0.90999550       0.04512601      -0.01399261       0.01881941       0.00358020
H        9.18140653       9.12433198       5.44203051       0.08197787       0.08196903       0.02494095       0.01020571       0.00601261      -0.01729061       0.36024131
H        4.20414681       8.62223312       5.18733443      -0.05094179       0.01023147       0.03066689      -0.01374044      -0.00257391       0.00708655       0.38633326
18
Lattice="15.099991252438835 0.0 0.0 0.0 15.099991252438835 0.0 0.0 0.0 15.099991252438835" Properties=species:S:1:pos:R:3:momenta:R:3:forces:R:3:charge:R:1 energy=-1059.9063958547345 free_energy=-1059.9063958547345 dipole="-0.8444205011199732 0.43053468259405886 -0.13942937111465156" stress="0.0 0.0 0.0 0.0 0.0 0.0 0.0 0.0 0.0" pbc="T T T"
H        9.71664989       6.96517166       9.09695723       0.10440403       0.10733091      -0.04198505       0.00384332      -0.00717486       0.00505251       0.06363719
C        8.73887574       7.65541144       7.32312298       0.49356363      -0.04298384      -0.93141238       0.01837182      -0.01822667       0.00112102      -0.05599849
C       10.05979796       7.89124533       6.64784849      -0.98745569       1.02342568      -0.50613422      -0.01200244      -0.00369318      -0.01296851       0.58480743
H        7.59971360       6.53960203      10.32492504      -0.01277290       0.13898146       0.04878215      -0.01825524      -0.01666284      -0.05162298       0.04716365
O       10.03511615       8.72942491       5.60076140       0.05009101      -0.04519704       0.41315659       0.01697846      -0.00076228      -0.00678172      -0.49255951
C        6.32925397       7.62489663       7.36616275      -1.09509609      -0.36561352      -0.10193012       0.02991821       0.03481895      -0.00198230      -0.02974745
C        5.01075206       7.86690637       6.72139045       0.83472370       0.84161862      -0.81314221       0.01135242       0.00095293       0.00957224       0.58059637
O        5.10972515       8.48053611       5.53343205       0.42939619      -0.26338895       0.33111924      -0.01497258      -0.01255532       0.00960672      -0.51382320
O        3.95371587       7.56002438       7.20397511      -0.99495868      -0.09122189       0.35020731      -0.00673340       0.00687757       0.01862425      -0.52194891
O       11.07160601       7.37068267       7.02098481       0.99090858      -1.09634447       0.07221764      -0.01780718       0.02033273       0.02108820      -0.49652213
C        8.75793515       7.15063900       8.62533051      -0.16491104       0.22235192      -0.08134544       0.00212969       0.01308410       0.01830133       0.00878545
H        5.41800973       6.94907310       9.17445393      -0.05682763       0.00665061      -0.06947053      -0.00410429      -0.03029192       0.04859958       0.06288885
H        7.48344664       8.26425730       5.67825595       0.10837415       0.04825322       0.11825853      -0.01175619      -0.00245055      -0.03165942       0.04648440
C        7.52009134       7.89208512       6.69602548       0.10023590      -0.02155923       0.08597102       0.03864445       0.00917055      -0.00880953      -0.01310484
C        7.57367843       6.90593727       9.30410763       0.11395450       0.16683580       0.16010411      -0.01517242       0.01114468      -0.02333720      -0.02072093
C        6.36030791       7.13537217       8.67264739       0.05533425      -0.72133977       0.90999550      -0.02249475       0.01663586       0.00055877       0.00339493
H        9.16741996       9.11714198       5.42312762       0.08197787       0.08196903       0.02494095       0.01074400      -0.00862819       0.00603786       0.36033957
H        4.21557660       8.61229760       5.17710424      -0.05094179       0.01023147       0.03066689      -0.00868388      -0.01257157      -0.00140083       0.38632762
18
Lattice="15.099991252438835 0.0 0.0 0.0 15.099991252438835 0.0 0.0 0.0 15.099991252438835" Properties=species:S:1:pos:R:3:momenta:R:3:forces:R:3:charge:R:1 energy=-1059.9085355958448 free_energy=-1059.9085355958448 dipole="-0.8486083041841753 0.3965899461226706 -0.15243540154282484" stress="0.0 0.0 0.0 0.0 0.0 0.0 0.0 0.0 0.0" pbc="T T T"
H        9.71687566       6.95362174       9.09578169       0.10440403       0.10733091      -0.04198505       0.00271429       0.00975123       0.01391083       0.06392791
C        8.74081409       7.65764639       7.32610416       0.49356363      -0.04298384      -0.93141238      -0.01255103       0.01780193      -0.02529342      -0.05556088
C       10.05777138       7.90294510       6.64837679      -0.98745569       1.02342568      -0.50613422       0.02237187       0.00958689       0.01845045       0.58463788
H        7.59476744       6.50908681      10.31202049      -0.01277290       0.13898146       0.04878215       0.00727324      -0.00652352       0.01001387       0.04710285
O       10.02610907       8.72957066       5.59218083       0.05009101      -0.04519704       0.41315659       0.00437850      -0.01585348       0.00766352      -0.49258390
C        6.33165785       7.63385101       7.37219178      -1.09509609      -0.36561352      -0.10193012      -0.02220656      -0.00258048      -0.01516096      -0.02990229
C        5.01350813       7.87837972       6.72788388       0.83472370       0.84161862      -0.81314221      -0.00128406       0.02211419       0.00464257       0.58053924
O        5.11724374       8.45066145       5.51989267       0.42939619      -0.26338895       0.33111924      -0.01020599       0.00666298       0.00062753      -0.51403109
O        3.95375952       7.60917444       7.22694161      -0.99495868      -0.09122189       0.35020731       0.00284730       0.00171401       0.01189908      -0.52198877
O       11.07584328       7.40250956       7.03136237       0.99090858      -1.09634447       0.07221764       0.01870887      -0.00826509       0.02044025      -0.49680901
C        8.75859468       7.14966204       8.62765319      -0.16491104       0.22235192      -0.08134544       0.00628421      -0.01766700      -0.03830054       0.00904717
H        5.41967386       6.94386079       9.18438786      -0.05682763       0.00665061      -0.06947053       0.01774065      -0.00128304      -0.01250379       0.06309200
H        7.48139397       8.25881326       5.67611192       0.10837415       0.04825322       0.11825853       0.00782878      -0.00543681       0.03091848       0.04674667
C        7.52273040       7.89467861       6.69833874       0.10023590      -0.02155923       0.08597102      -0.03125647       0.00285414       0.00041486      -0.01343485
C        7.57295980       6.89762506       9.30088478       0.11395450       0.16683580       0.16010411       0.00224894      -0.00668906      -0.01316178      -0.02089574
C        6.35865722       7.13674724       8.67619191       0.05533425      -0.72133977       0.90999550       0.00042747       0.02139041      -0.01674260       0.00371865
H        9.15410660       9.10472452       5.40979173       0.08197787       0.08196903       0.02494095       0.00293217      -0.00150692      -0.00377156       0.36012931
H        4.22520548       8.59714671       5.16451666      -0.05094179       0.01023147       0.03066689      -0.01825220      -0.02607039       0.00595321       0.38626484
18
Lattice="15.099991252438835 0.0 0.0 0.0 15.099991252438835 0.0 0.0 0.0 15.099991252438835" Properties=species:S:1:pos:R:3:momenta:R:3:forces:R:3:charge:R:1 energy=-1059.9097020602858 free_energy=-1059.9097020602858 dipole="-0.8491540009254638 0.386575551178813 -0.1618274754552217" stress="0.0 0.0 0.0 0.0 0.0 0.0 0.0 0.0 0.0" pbc="T T T"
H        9.71545793       6.95393793       9.09730108       0.10440403       0.10733091      -0.04198505      -0.00223380      -0.00015194      -0.02438719       0.06387591
C        8.74113625       7.66219618       7.32400713       0.49356363      -0.04298384      -0.93141238       0.00781465      -0.02098330       0.02674269      -0.05596738
C       10.06165266       7.90767170       6.65285791      -0.98745569       1.02342568      -0.50613422      -0.00422813      -0.01205822      -0.00342618       0.58477085
H        7.59429958       6.49302432      10.30260575      -0.01277290       0.13898146       0.04878215       0.00920957       0.01497493      -0.02012226       0.04700009
O       10.03029765       8.72446137       5.58950609       0.05009101      -0.04519704       0.41315659       0.01571411       0.00977976      -0.00468786      -0.49250214
C        6.32998104       7.64079424       7.37135949      -1.09509609      -0.36561352      -0.10193012       0.01048505       0.00877152       0.02695685      -0.02972585
C        5.01135335       7.88731376       6.73216477       0.83472370       0.84161862      -0.81314221      -0.02414542      -0.02089329       0.00062154       0.58052934
O        5.11051107       8.44387068       5.51698933       0.42939619      -0.26338895       0.33111924      -0.02005339       0.00901123       0.00218668      -0.51371143
O        3.95359681       7.62459726       7.23965461      -0.99495868      -0.09122189       0.35020731       0.00822610       0.02077167      -0.00367124      -0.52243854
O       11.07944354       7.41262652       7.04424917       0.99090858      -1.09634447       0.07221764      -0.00799693       0.01317199       0.00999627      -0.49683345
C        8.75923548       7.14690842       8.62245654      -0.16491104       0.22235192      -0.08134544      -0.00376091       0.00054026       0.03018996       0.00926752