18
Lattice="15.099991252438835 0.0 0.0 0.0 15.099991252438835 0.0 0.0 0.0 15.099991252438835" Properties=species:S:1:pos:R:3:momenta:R:3:forces:R:3:charge:R:1 energy=-1059.8379441636735 free_energy=-1059.8379441636735 dipole="-0.8693397376499875 0.5545064057146382 -0.1029433853726602" stress="0.0 0.0 0.0 0.0 0.0 0.0 0.0 0.0 0.0" pbc="T T T"
H        9.69539445       6.86993206       9.03584212       0.07099799      -0.01505805      -0.02311821       0.07692841       0.04005896       0.26508223       0.06424005
C        8.74928268       7.67459090       7.32649844       0.32434627      -0.09320540       0.18955208      -0.03642461      -0.08256933      -0.14174031      -0.05662827
C       10.08104329       7.83094876       6.64972997       0.99368927      -0.18762418      -0.47803538      -0.30357256       0.07746076      -0.12132085       0.58637709
H        7.51598134       6.50831897      10.29284321      -0.01676289       0.03881102       0.11850567       0.15707166       0.04390792       0.00808761       0.04743704
O       10.08686195       8.63351564       5.57511191       0.14525369      -0.10422458       1.25849587       0.11673331       0.12929462      -0.09071498      -0.49496406
C        6.35661483       7.66709635       7.33294857      -0.02207821      -0.11706192       0.32016350      -0.08584473       0.01300400       0.06118684      -0.03141598
C        5.02987238       7.80481108       6.68575395      -1.04231339      -0.00796363      -0.68003606       0.47810282       0.20584053      -0.05517382       0.58147107
O        5.02060930       8.56875139       5.58915548      -0.05057794      -0.35993961       0.93549019      -0.00618821      -0.02901439       0.01350617      -0.51185176
O        4.04464133       7.28265652       7.11773136       0.18713080       0.35987970       0.12811872      -0.67592590      -0.19844529       0.13108927      -0.52407901
O       11.06536929       7.26629810       7.02270263      -0.78806853       0.88370084      -1.08924831       0.17705557      -0.08051881       0.11418910      -0.49560784
C        8.73731002       7.14736308       8.62051131       0.16725495       0.03804432      -0.23211645      -0.01996278      -0.00685285      -0.11700288       0.00663065
H        5.38415742       6.99674300       9.09245013      -0.01613769      -0.10080645      -0.01592095       0.08692075      -0.00137356       0.16938731       0.06432658
H        7.49307253       8.22090655       5.62287729       0.12995354       0.02812679      -0.17613267       0.15928983       0.08803727       0.10350804       0.04701509
C        7.54700041       7.92236338       6.66707083       0.14502084      -0.34120452      -0.15223342      -0.01991645      -0.03855239      -0.03239903      -0.01380662
C        7.54342290       6.93028144       9.29492031       0.26123917      -0.47225726       0.24426119       0.03486008      -0.05989702      -0.05293489      -0.01922609
C        6.35211357       7.19752431       8.64620517      -0.55147067       0.47295663      -0.30723049      -0.07455820      -0.07509392      -0.12323687       0.00164242
H        9.26925616       9.12287849       5.40886369       0.05862894       0.06988569      -0.17371076      -0.00599514      -0.10875178       0.07912504       0.36127335
H        4.09735715       8.59783756       5.29259433       0.00389387      -0.09205939       0.13319546      -0.05857383       0.08346527      -0.21063801       0.38716629
18
Lattice="15.099991252438835 0.0 0.0 0.0 15.099991252438835 0.0 0.0 0.0 15.099991252438835" Properties=species:S:1:pos:R:3:momenta:R:3:forces:R:3:charge:R:1 energy=-1059.8786852372916 free_energy=-1059.8786852372916 dipole="-0.8529677082406942 0.5461663261294124 -0.11129114282175752" stress="0.0 0.0 0.0 0.0 0.0 0.0 0.0 0.0 0.0" pbc="T T T"
H        9.69229174       6.88984985       9.07965656       0.07099799      -0.01505805      -0.02311821      -0.03017747       0.07479739      -0.04041956       0.06400839
C        8.74620199       7.65142769       7.30721049       0.32434627      -0.09320540       0.18955208       0.00951514      -0.04124432       0.05577234      -0.05583449
C       10.07589052       7.82890350       6.63350970       0.99368927      -0.18762418      -0.47803538       0.11955113      -0.02552175       0.08866828       0.58382622
H        7.55316773       6.52083105      10.28828509      -0.01676289       0.03881102       0.11850567       0.02640912       0.02862977      -0.04657238       0.04708974
O       10.10390047       8.65092832       5.57275274       0.14525369      -0.10422458       1.25849587      -0.05989281      -0.04730792       0.10775492      -0.49161191
C        6.33987525       7.66619105       7.33459359      -0.02207821      -0.11706192       0.32016350      -0.02971658      -0.13708475       0.00758075      -0.02911831
C        5.00811978       7.80755467       6.69215830      -1.04231339      -0.00796363      -0.68003606      -0.17776596       0.00635465      -0.03649067       0.58054620
O        5.01329867       8.56391653       5.59004102      -0.05057794      -0.35993961       0.93549019       0.02051199       0.05409626      -0.08203047      -0.51111675
O        4.00299070       7.29262578       7.11095329       0.18713080       0.35987970       0.12811872       0.11942437       0.08988988       0.01752692      -0.52495924
O       11.05979138       7.27239754       7.03051769      -0.78806853       0.88370084      -1.08924831       0.02728047       0.00188274      -0.03704092      -0.49705556
C        8.74483556       7.13595459       8.60875368       0.16725495       0.03804432      -0.23211645       0.03948378      -0.00219541      -0.04845996       0.00884543
H        5.40102286       6.99395835       9.13099617      -0.01613769      -0.10080645      -0.01592095       0.01994067      -0.02569535       0.02345201       0.06343342
H        7.52102298       8.24567385       5.63604728       0.12995354       0.02812679      -0.17613267      -0.05200192       0.05354456      -0.00227118       0.04542423
C        7.53866387       7.91136818       6.66787448       0.14502084      -0.34120452      -0.15223342      -0.10167364      -0.01031760      -0.00990435      -0.01305646
C        7.55050775       6.91823317       9.27831317       0.26123917      -0.47225726       0.24426119       0.08838403      -0.04409388       0.06611959      -0.02038531
C        6.35061211       7.17691347       8.64018985      -0.55147067       0.47295663      -0.30723049      -0.02754898       0.00135777       0.03899567       0.00303275
H        9.26543579       9.10394049       5.41870947       0.05862894       0.06988569      -0.17371076      -0.04546960       0.03000920      -0.06978670       0.36028553
H        4.10173181       8.61214949       5.25324815       0.00389387      -0.09205939       0.13319546       0.05374626      -0.00710124      -0.03289429       0.38664613
18
Lattice="15.099991252438835 0.0 0.0 0.0 15.099991252438835 0.0 0.0 0.0 15.099991252438835" Properties=species:S:1:pos:R:3:momenta:R:3:forces:R:3:charge:R:1 energy=-1059.8878937914444 free_energy=-1059.8878937914444 dipole="-0.8560501186165206 0.5379950929373825 -0.12667924281371135" stress="0.0 0.0 0.0 0.0 0.0 0.0 0.0 0.0 0.0" pbc="T T T"
H        9.69522038       6.91165396       9.08223305       0.07099799      -0.01505805      -0.02311821       0.01949474       0.01204378      -0.03946508       0.06364354
C        8.74303032       7.63985242       7.30310678       0.32434627      -0.09320540       0.18955208       0.01153512      -0.01887416       0.01204324      -0.05631898
C       10.07961272       7.82578815       6.64319962       0.99368927      -0.18762418      -0.47803538       0.00060842       0.00186711      -0.05709745       0.58486957
H        7.57094020       6.52688097      10.28833381      -0.01676289       0.03881102       0.11850567      -0.01307306       0.00239428       0.02355287       0.04697957
O       10.09727953       8.65431762       5.58857433       0.14525369      -0.10422458       1.25849587       0.03995844       0.04311938      -0.03218739      -0.49281305
C        6.33135853       7.64412757       7.33216879      -0.02207821      -0.11706192       0.32016350       0.03089430       0.03423654       0.00952123      -0.02874919
C        4.99958195       7.81333050       6.68752646      -1.04231339      -0.00796363      -0.68003606      -0.02228431      -0.02172983       0.01946216       0.58086882
O        5.01702662       8.56732995       5.58125304      -0.05057794      -0.35993961       0.93549019       0.03819644      -0.03465139       0.00674099      -0.51161603
O        3.99127147       7.31442727       7.11403301       0.18713080       0.35987970       0.12811872       0.00902369       0.08384865      -0.01843678      -0.52326624
O       11.06978586       7.27217546       7.02945129      -0.78806853       0.88370084      -1.08924831      -0.10442187       0.04786161       0.00728031      -0.49670687
C        8.74720207       7.13052438       8.60296586       0.16725495       0.03804432      -0.23211645       0.00633134       0.00412100       0.03789556       0.00825231
H        5.40919782       6.98562767       9.14956164      -0.01613769      -0.10080645      -0.01592095      -0.00881705      -0.02204472      -0.00912693       0.06288782
H        7.51100619       8.26292880       5.64495474       0.12995354       0.02812679      -0.17613267      -0.05597055      -0.00533338      -0.00117739       0.04486792
C        7.52973911       7.90091024       6.66798671       0.14502084      -0.34120452      -0.15223342       0.03305617      -0.02448155       0.00613646      -0.01269166
C        7.55671753       6.91163837       9.27588346       0.26123917      -0.47225726       0.24426119      -0.01553271      -0.00608389       0.02856544      -0.02082044
C        6.35106304       7.16544345       8.64361174      -0.55147067       0.47295663      -0.30723049      -0.00785943      -0.05495929      -0.01891155       0.00321703
H        9.25797254       9.09902188       5.40954473       0.05862894       0.06988569      -0.17371076      -0.00903544      -0.03910761       0.01910897       0.36079000
H        4.11135512       8.61683891       5.22942164       0.00389387      -0.09205939       0.13319546       0.04789577      -0.00222654       0.00609535       0.38660586
18
Lattice="15.099991252438835 0.0 0.0 0.0 15.099991252438835 0.0 0.0 0.0 15.099991252438835" Properties=species:S:1:pos:R:3:momenta:R:3:forces:R:3:charge:R:1 energy=-1059.8943908413132 free_energy=-1059.8943908413132 dipole="-0.8498347580166714 0.5067919292042055 -0.14172510386740772" stress="0.0 0.0 0.0 0.0 0.0 0.0 0.0 0.0 0.0" pbc="T T T"
H        9.70824247       6.93288900       9.06998647       0.07099799      -0.01505805      -0.02311821      -0.01591304      -0.01683362       0.03419236       0.06425325
C        8.73874122       7.62968768       7.29843801       0.32434627      -0.09320540       0.18955208      -0.02949633       0.04823806      -0.02825277      -0.05643013
C       10.07373662       7.83025366       6.63771812       0.99368927      -0.18762418      -0.47803538      -0.04160828       0.02223479       0.04009774       0.58466970
H        7.57625201       6.53173259      10.29975101      -0.01676289       0.03881102       0.11850567       0.00502107      -0.00048706      -0.01120106       0.04707233
O       10.09845311       8.67031889       5.59303364       0.14525369      -0.10422458       1.25849587      -0.05224795      -0.02187225       0.00595832      -0.49143687
C        6.32914656       7.62784054       7.33714281      -0.02207821      -0.11706192       0.32016350      -0.02766213      -0.00587843       0.01063685      -0.02929151
C        5.00100562       7.82054019       6.68866831      -1.04231339      -0.00796363      -0.68003606       0.07098948       0.02290422       0.02624468       0.58075461
O        5.04244105       8.55713546       5.57027204      -0.05057794      -0.35993961       0.93549019       0.04454690      -0.04977207       0.00907064      -0.51250553
O        3.97744742       7.36128245       7.11914651       0.18713080       0.35987970       0.12811872      -0.06438058       0.01246686       0.03735822      -0.52251053
O       11.06043951       7.28041524       7.03375622      -0.78806853       0.88370084      -1.08924831       0.07902813      -0.01601037       0.00041026      -0.49685812
C        8.74928436       7.13105296       8.60413697       0.16725495       0.03804432      -0.23211645      -0.02455723      -0.00052873      -0.04733955       0.00833816
H        5.41074151       6.96620910       9.15578410      -0.01613769      -0.10080645      -0.01592095       0.00761594      -0.04697448      -0.02305566       0.06258090
H        7.48111696       8.27111655       5.65352261       0.12995354       0.02812679      -0.17613267       0.04688549      -0.04639101      -0.00358011       0.04508304
C        7.52371192       7.88727914       6.66834667       0.14502084      -0.34120452      -0.15223342      -0.03165263       0.03534167       0.00462680      -0.01336462
C        7.56111548       6.90354777       9.28171673       0.26123917      -0.47225726       0.24426119       0.00528297      -0.00066427      -0.04862967      -0.02067979
C        6.35195894       7.13919587       8.64515159      -0.55147067       0.47295663      -0.30723049       0.01074969       0.04124746       0.01438865       0.00324219
H        9.24552387       9.08303841       5.40390896       0.05862894       0.06988569      -0.17371076      -0.01419626       0.01251640      -0.02176053       0.36055367
H        4.14000236       8.61928210       5.21332995       0.00389387      -0.09205939       0.13319546       0.03159477       0.01046284       0.00083483       0.38652925
18
Lattice="15.099991252438835 0.0 0.0 0.0 15.099991252438835 0.0 0.0 0.0 15.099991252438835" Properties=species:S:1:pos:R:3:momenta:R:3:forces:R:3:charge:R:1 energy=-1059.8996541413517 free_energy=-1059.8996541413517 dipole="-0.8407753393434346 0.48762977829468596 -0.14722430587696586" stress="0.0 0.0 0.0 0.0 0.0 0.0 0.0 0.0 0.0" pbc="T T T"
H        9.70748193       6.94262327       9.06713816       0.07099799      -0.01505805      -0.02311821      -0.01902134      -0.02275448       0.00454926       0.06425220
C        8.73163894       7.63403453       7.29481283       0.32434627      -0.09320540       0.18955208       0.02824535      -0.02134861       0.04685419      -0.05648659
C       10.06696296       7.83782626       6.64034536       0.99368927      -0.18762418      -0.47803538       0.04049399      -0.00049295      -0.02914944       0.58466370
H        7.58289226       6.53444663      10.30029742      -0.01676289       0.03881102       0.11850567       0.02423984      -0.03801864      -0.01278289       0.04699612
O       10.08551431       8.67624752       5.59463388       0.14525369      -0.10422458       1.25849587       0.00035908      -0.00378046      -0.03519167      -0.49162444
C        6.32458718       7.61891488       7.34516054      -0.02207821      -0.11706192       0.32016350       0.01242762       0.00741247      -0.00580908      -0.02925829
C        5.00293880       7.82667401       6.69959754      -1.04231339      -0.00796363      -0.68003606      -0.07558824      -0.00839777      -0.02251082       0.58042590
O        5.07714912       8.53064928       5.56261685      -0.05057794      -0.35993961       0.93549019      -0.02267407       0.01038122      -0.04151945      -0.51315838
O        3.96035695       7.41310176       7.13397318       0.18713080       0.35987970       0.12811872       0.06133316       0.04058767       0.03596172      -0.52298373
O       11.05871269       7.29287321       7.03445109      -0.78806853       0.88370084      -1.08924831      -0.04644911       0.04319055      -0.00861774      -0.49720908
C        8.74770423       7.13158477       8.59791327       0.16725495       0.03804432      -0.23211645       0.02002112       0.01804186       0.05249354       0.00852980
H        5.41255565       6.93278274       9.15322710      -0.01613769      -0.10080645      -0.01592095      -0.01152755      -0.00823994       0.02172664       0.06279970
H        7.47194539       8.26067602       5.65325245       0.12995354       0.02812679      -0.17613267       0.01622020      -0.00579464      -0.01652936       0.04597767
C        7.51408334       7.88725596       6.67084140       0.14502084      -0.34120452      -0.15223342       0.02936289      -0.01582788       0.00074285      -0.01245343
C        7.56465656       6.89656772       9.27899805       0.26123917      -0.47225726       0.24426119      -0.01818501       0.00924145       0.04884452      -0.02062607
C        6.35235998       7.12807444       8.64997543      -0.55147067       0.47295663      -0.30723049      -0.01630127      -0.02085439      -0.00992290       0.00319014
H        9.22856859       9.07427291       5.39329626       0.05862894       0.06988569      -0.17371076      -0.02040019       0.01295276      -0.00412480       0.36064300
H        4.17925209       8.62421166       5.20327992       0.00389387      -0.09205939       0.13319546      -0.00255646       0.00370181      -0.02501457       0.38632178
18
Lattice="15.099991252438835 0.0 0.0 0.0 15.099991252438835 0.0 0.0 0.0 15.099991252438835" Properties=species:S:1:pos:R:3:momenta:R:3:forces:R:3:charge:R:1 energy=-1059.9035755789039 free_energy=-1059.9035755789039 dipole="-0.8409497733969384 0.4639425176777894 -0.16095664803077764" stress="0.0 0.0 0.0 0.0 0.0 0.0 0.0 0.0 0.0" pbc="T T T"
H        9.70454489       6.93941315       9.07412884       0.07099799      -0.01505805      -0.02311821       0.01425255       0.01621096       0.02582600       0.06405552
C        8.73215404       7.63678347       7.30178054       0.32434627      -0.09320540       0.18955208      -0.00433812       0.02131232      -0.01000071      -0.05625919
C       10.06204863       7.84796643       6.63617309       0.99368927      -0.18762418      -0.47803538      -0.02988628       0.01216406       0.01526465       0.58479701
H        7.59489825       6.51846628      10.30025160      -0.01676289       0.03881102       0.11850567      -0.04026391      -0.01550984       0.00431105       0.04695527
O       10.06887404       8.67716715       5.58207680       0.14525369      -0.10422458       1.25849587      -0.02076356      -0.01777372      -0.00464320      -0.49199885
C        6.32370623       7.61241197       7.34783249      -0.02207821      -0.11706192       0.32016350       0.00796844      -0.00821254       0.00040869      -0.02975056
C        5.00295757       7.83574701       6.70138264      -1.04231339      -0.00796363      -0.68003606       0.05709946       0.02455642       0.01699839       0.58091474
O        5.09399093       8.50778470       5.54514037      -0.05057794      -0.35993961       0.93549019      -0.01711459      -0.01820739       0.00323988      -0.51384920
O        3.95563024       7.46788647       7.16122730       0.18713080       0.35987970       0.12811872      -0.03684594       0.02893550      -0.01883295      -0.52179599
O       11.05826924       7.31473458       7.03237391      -0.78806853       0.88370084      -1.08924831       0.03978402       0.01647185      -0.01154380      -0.49691953
C        8.74700833       7.13930399       8.60698238       0.16725495       0.03804432      -0.23211645      -0.00142649      -0.02094424      -0.01920265       0.00843744
H        5.41130869       6.90361699       9.15640781      -0.01613769      -0.10080645      -0.01592095       0.02058739       0.03117292      -0.02985949       0.06288837
H        7.47556441       8.24642961       5.65216552       0.12995354       0.02812679      -0.17613267       0.00192117      -0.00826826       0.03948989       0.04594345
C        7.51449080       7.88154005       6.67449529       0.14502084      -0.34120452      -0.15223342      -0.00016814      -0.01573092       0.01408796      -0.01280918
C        7.56304288       6.89522540       9.28488303       0.26123917      -0.47225726       0.24426119       0.02040533      -0.03226865      -0.03270948      -0.02099016
C        6.34900329       7.11519779       8.65241280      -0.55147067       0.47295663      -0.30723049       0.02570572       0.01313718       0.00343083       0.00364842
H        9.20932551       9.07238807       5.38289991       0.05862894       0.06988569      -0.17371076       0.00596935      -0.00846108       0.00878293       0.36061570
H        4.20254302       8.63075447       5.18119640       0.00389387      -0.09205939       0.13319546      -0.04288640      -0.01858459      -0.00504798       0.38611673
18
Lattice="15.099991252438835 0.0 0.0 0.0 15.099991252438835 0.0 0.0 0.0 15.099991252438835" Properties=species:S:1:pos:R:3:momenta:R:3:forces:R:3:charge:R:1 energy=-1059.906405425515 free_energy=-1059.906405425515 dipole="-0.8408327882184174 0.44403711875310153 -0.15239605695032646" stress="0.0 0.0 0.0 0.0 0.0 0.0 0.0 0.0 0.0" pbc="T T T"
H        9.70737441       6.94392270       9.08709611       0.07099799      -0.01505805      -0.02311821       0.02028206       0.01068176      -0.00221450       0.06388630
C        8.73575699       7.64066268       7.30981772       0.32434627      -0.09320540       0.18955208       0.00634605      -0.03851652      -0.00335489      -0.05587330
C       10.05904095       7.85828164       6.63577456       0.99368927      -0.18762418      -0.47803538       0.04542710      -0.00532729      -0.00362589       0.58466754
H        7.58820658       6.49921922      10.29790138      -0.01676289       0.03881102       0.11850567       0.00033508      -0.01513962      -0.01461191       0.04705968
O       10.05152700       8.67071198       5.56899399       0.14525369      -0.10422458       1.25849587       0.00103604       0.00609855      -0.00381900      -0.49225014
C        6.32522830       7.60747282       7.34952235      -0.02207821      -0.11706192       0.32016350      -0.01523803       0.02637579      -0.01700866      -0.02958709
C        5.00553311       7.84915761       6.70450032      -1.04231339      -0.00796363      -0.68003606      -0.05510857      -0.01231750      -0.01203548       0.58057315
O        5.09914434       8.48818904       5.52917685      -0.05057794      -0.35993961       0.93549019       0.01521543       0.00061971      -0.00089261      -0.51388269
O        3.94959270       7.52063882       7.17659070       0.18713080       0.35987970       0.12811872       0.04559636       0.01729294       0.02274793      -0.52200873
O       11.06533006       7.34020105       7.02767112      -0.78806853       0.88370084      -1.08924831       0.00030927       0.00436892       0.02618574      -0.49715240
C        8.75185351       7.13581022       8.61217535       0.16725495       0.03804432      -0.23211645       0.00950095      -0.00898878       0.01406366       0.00902558
H        5.41504492       6.89687013       9.15068169      -0.01613769      -0.10080645      -0.01592095      -0.01794260       0.01653711       0.02928532       0.06285252
H        7.47846672       8.23573992       5.66000282       0.12995354       0.02812679      -0.17613267       0.00807678       0.02460069      -0.03929435       0.04619428
C        7.51763508       7.87324755       6.68078092       0.14502084      -0.34120452      -0.15223342      -0.00527110       0.02948203      -0.01439279      -0.01286535
C        7.56672569       6.88050476       9.28342893       0.26123917      -0.47225726       0.24426119      -0.01992072      -0.00283830       0.00305425      -0.02096417
C        6.35389616       7.10858437       8.65237205      -0.55147067       0.47295663      -0.30723049      -0.03064174      -0.01300762      -0.02435220       0.00357154
H        9.19288277       9.06991155       5.37819084       0.05862894       0.06988569      -0.17371076      -0.03019527      -0.00080663      -0.00267599       0.36059097
H        4.20612169       8.62369151       5.16913300       0.00389387      -0.09205939       0.13319546       0.02219293      -0.03911523       0.04294138       0.38616233
18
Lattice="15.099991252438835 0.0 0.0 0.0 15.099991252438835 0.0 0.0 0.0 15.099991252438835" Properties=species:S:1:pos:R:3:momenta:R:3:forces:R:3:charge:R:1 energy=-1059.9080582934976 free_energy=-1059.9080582934976 dipole="-0.8435690827979658 0.42328124004472817 -0.15302302627027697" stress="0.0 0.0 0.0 0.0 0.0 0.0 0.0 0.0 0.0" pbc="T T T"
H        9.71132286       6.94957594       9.09271076       0.07099799      -0.01505805      -0.02311821      -0.04149051      -0.00293327      -0.02520364       0.06391965
C        8.73759890       7.63580352       7.31059548       0.32434627      -0.09320540       0.18955208       0.00523928       0.00851993      -0.00058052      -0.05597398
C       10.06090204       7.86295697       6.63587469       0.99368927      -0.18762418      -0.47803538      -0.01537866      -0.00758135       0.00036102       0.58466314
H        7.58317941       6.48414441      10.29257654      -0.01676289       0.03881102       0.11850567       0.00459817      -0.00140889      -0.01999505       0.04695159
O       10.04104394       8.66861641       5.56305527       0.14525369      -0.10422458       1.25849587       0.00971971       0.00482987       0.02018993      -0.49270593
C        6.32543365       7.60915012       7.34807594      -0.02207821      -0.11706192       0.32016350       0.02827093      -0.00718828       0.01404182      -0.02969379
C        5.00700637       7.85704063       6.70636453      -1.04231339      -0.00796363      -0.68003606       0.00159465       0.00871687       0.02361862       0.58047721
O        5.10521298       8.47476104       5.52091376      -0.05057794      -0.35993961       0.93549019      -0.02054797      -0.01556968       0.00275317      -0.51361526
O        3.94967358       7.55399975       7.19168185       0.18713080       0.35987970       0.12811872       0.01621947       0.00703822       0.00115502      -0.52235651
O       11.07230252       7.35735284       7.03092235      -0.78806853       0.88370084      -1.08924831      -0.01882742       0.02473568       0.00335957      -0.49669251
C        8.75373669       7.13189336       8.61439040       0.16725495       0.03804432      -0.23211645      -0.01563172      -0.00294080      -0.01869634       0.00916535
H        5.41400430       6.89799365       9.15258449      -0.01613769      -0.10080645      -0.01592095       0.00229063       0.00657907      -0.01040767       0.06295236
H        7.48254970       8.23605318       5.65850009       0.12995354       0.02812679      -0.17613267       0.00358045       0.01582935       0.00657501       0.04632312
C        7.51948600       7.87387535       6.68081700       0.14502084      -0.34120452      -0.15223342       0.01801069      -0.01709425      -0.00950261      -0.01293345
C        7.56504884       6.87155146       9.27998247       0.26123917      -0.47225726       0.24426119       0.01054335       0.00055472      -0.00283209      -0.02103972
C        6.35224346       7.10297298       8.64840862      -0.55147067       0.47295663      -0.30723049       0.01471173       0.01057547       0.02121631       0.00370346
H        9.17897299       9.06477391       5.37641924       0.05862894       0.06988569      -0.17371076       0.00959940      -0.02769944       0.00916551       0.36049061
H        4.20964273       8.61030206       5.16993723       0.00389387      -0.09205939       0.13319546      -0.01250218      -0.00496321      -0.01521806       0.38636467
18
Lattice="15.099991252438835 0.0 0.0 0.0 15.099991252438835 0.0 0.0 0.0 15.099991252438835" Properties=species:S:1:pos:R:3:momenta:R:3:forces:R:3:charge:R:1 energy=-1059.9092525617343 free_energy=-1059.9092525617343 dipole="-0.8496973183937537 0.3961708507925293 -0.1610851623830934" stress="0.0 0.0 0.0 0.0 0.0 0.0 0.0 0.0 0.0" pbc="T T T"
H        9.70649374       6.95158962       9.09114764       0.07099799      -0.01505805      -0.02311821       0.03811542      -0.03330612       0.00608471       0.06388338
C        8.73909463       7.63272131       7.30853746       0.32434627      -0.09320540       0.18955208      -0.01512235       0.00588808      -0.01323175      -0.05599468
C       10.06101353       7.86845156       6.63717679       0.99368927      -0.18762418      -0.47803538      -0.00069265       0.02117839       0.01811316       0.58471359
H        7.58301949       6.46777006      10.28467534      -0.01676289       0.03881102       0.11850567       0.01366652      -0.00145110       0.02151644       0.04716311
O       10.03519505       8.67016582       5.56240271       0.14525369      -0.10422458       1.25849587       0.00496948       0.00907878       0.00135997      -0.49249536
C        6.32972689       7.61040820       7.34856280      -0.02207821      -0.11706192       0.32016350      -0.02515731       0.00670618      -0.01020006      -0.02990238
C        5.01012828       7.86699120       6.71266545      -1.04231339      -0.00796363      -0.68003606       0.01513976      -0.00608078      -0.00607509       0.58043152
O        5.10614729       8.45693710       5.51304520      -0.05057794      -0.35993961       0.93549019      -0.00791090      -0.00742337       0.00114651      -0.51369686
O        3.95308988       7.58846626       7.21236505       0.18713080       0.35987970       0.12811872      -0.01605229       0.00332060       0.01639740      -0.52243141
O       11.07669083       7.37846026       7.03923703      -0.78806853       0.88370084      -1.08924831       0.02818309      -0.01404947       0.01781326      -0.49685591
C        8.75149934       7.12719839       8.61054024       0.16725495       0.03804432      -0.23211645       0.00694051      -0.00268976      -0.00342202       0.00921983