18
Lattice="15.099991252438835 0.0 0.0 0.0 15.099991252438835 0.0 0.0 0.0 15.099991252438835" Properties=species:S:1:pos:R:3:momenta:R:3:forces:R:3:charge:R:1 energy=-1059.8049209417177 free_energy=-1059.8049209417177 dipole="-0.8946864081067649 0.4240100479438639 -0.16093798213440946" stress="0.0 0.0 0.0 0.0 0.0 0.0 0.0 0.0 0.0" pbc="T T T"
H        9.66914010       7.11227911       9.26142558       0.15389140      -0.12956404      -0.36745020       0.00914679      -0.03293418      -0.17006612       0.06572547
C        8.75543310       7.76416757       7.41300711       0.17838420       0.04153304       0.84855401      -0.15518131      -0.06526989      -0.14138874      -0.05570879
C       10.07214971       7.81477528       6.70239077      -2.07042663      -0.44329513      -0.38507149       0.19233405      -0.06602534      -0.02041462       0.58309028
H        7.46307918       6.70934560      10.37098239       0.17025797      -0.13989037      -0.03512735       0.15359870      -0.06952378       0.15511904       0.04807103
O       10.02133215       8.09188315       5.38978143      -0.79435830      -0.57190842       0.28570873      -0.01833054       0.21071507       0.14633111      -0.49400450
C        6.33665395       7.69577846       7.33114230       0.67540934       0.02132113       0.61401522       0.24104333       0.02649518       0.25307757      -0.02803474
C        5.03020580       7.79998003       6.62774549       1.04477051      -0.25269294      -0.93080417      -0.00135144       0.15031256      -0.04611064       0.58013812
O        5.08098488       8.48088477       5.47249164       0.34398542      -0.14016986      -0.81863703      -0.06092900      -0.00288197       0.14241764      -0.51300404
O        4.00331644       7.32656964       7.03744864      -0.68143073       0.06632678       0.90975903       0.07755765       0.01490677       0.10290835      -0.52202457
O       11.10033447       7.53541502       7.25006496       0.63277878       0.78366885       0.85404508       0.06772684       0.03744687       0.05221090      -0.49852629
C        8.73969212       7.27750861       8.72470341       0.18678345      -0.23621896      -0.64068249      -0.09982897       0.11444036      -0.00602794       0.01310854
H        5.39945774       7.03022316       9.14349566      -0.11260349       0.02874957       0.25452060      -0.08717853      -0.11996641      -0.09162508       0.06204258
H        7.56672271       8.49276827       5.76031238      -0.13474130      -0.29039899       0.12033143      -0.08225743      -0.18482561       0.00545794       0.04356886
C        7.55769584       8.02611666       6.74353093       0.21220879      -0.45651479      -0.22221914      -0.09824828      -0.06485218       0.00293286      -0.01177537
C        7.52427204       7.04450305       9.34718200      -0.18007472       0.73002697      -0.04358924      -0.11120424       0.08031243      -0.13827132      -0.02183822
C        6.34336140       7.21881178       8.64578779       0.49144137       0.88695498      -0.85975083      -0.21087635       0.07275913       0.01516457       0.00371811
H        9.15746708       8.43237062       5.11678067      -0.10005251       0.04470907       0.61167772       0.05649073      -0.08563606      -0.13415785       0.35832410
H        4.16374902       8.54543098       5.15043571      -0.01622356       0.05736312      -0.19527987       0.12748798      -0.01547292      -0.12755769       0.38712941
18
Lattice="15.099991252438835 0.0 0.0 0.0 15.099991252438835 0.0 0.0 0.0 15.099991252438835" Properties=species:S:1:pos:R:3:momenta:R:3:forces:R:3:charge:R:1 energy=-1059.8591447961937 free_energy=-1059.8591447961937 dipole="-0.8977305309912065 0.3535893869278963 -0.25086828772394576" stress="0.0 0.0 0.0 0.0 0.0 0.0 0.0 0.0 0.0" pbc="T T T"
H        9.65954266       7.10612087       9.21176580       0.15389140      -0.12956404      -0.36745020      -0.00424274      -0.00249123       0.07054843       0.06457064
C        8.74920283       7.73994526       7.39276181       0.17838420       0.04153304       0.84855401       0.00442633       0.03030162       0.01236891      -0.05627000
C       10.08745143       7.80882747       6.70870330      -2.07042663      -0.44329513      -0.38507149      -0.10996752       0.14631593      -0.02684074       0.58515327
H        7.50393688       6.70091110      10.38039813       0.17025797      -0.13989037      -0.03512735      -0.02885518       0.01494093      -0.01628532       0.04700140
O       10.04334384       8.15176257       5.41243234      -0.79435830      -0.57190842       0.28570873       0.14293865       0.06828795      -0.03788429      -0.49472774
C        6.33836334       7.71698410       7.36094799       0.67540934       0.02132113       0.61401522      -0.02477836       0.05355713      -0.06914929      -0.02908240
C        5.03668566       7.82459478       6.64942583       1.04477051      -0.25269294      -0.93080417      -0.10190914      -0.00955342       0.05393968       0.58082379
O        5.08564885       8.49720441       5.49345942       0.34398542      -0.14016986      -0.81863703       0.08760292       0.05616818       0.00466101      -0.51205654
O        4.02162864       7.33265333       7.06709190      -0.68143073       0.06632678       0.90975903      -0.08213408       0.06202445      -0.01508573      -0.52376141
O       11.11669200       7.54422100       7.26275586       0.63277878       0.78366885       0.85404508      -0.15724411       0.01828080      -0.02127681      -0.49666669
C        8.71484707       7.29884253       8.71599407       0.18678345      -0.23621896      -0.64068249       0.00394929      -0.18503826       0.00267889       0.00900019
H        5.35913594       6.99423170       9.12378095      -0.11260349       0.02874957       0.25452060       0.06884821       0.01166613      -0.00580092       0.06436287
H        7.53764903       8.44092609       5.74587655      -0.13474130      -0.29039899       0.12033143      -0.05272896      -0.09574973      -0.12274221       0.04318938
C        7.54928302       8.00980483       6.73996242       0.21220879      -0.45651479      -0.22221914      -0.05176987      -0.02025322       0.01623146      -0.01241023
C        7.50635360       7.05632493       9.35595036      -0.18007472       0.73002697      -0.04358924       0.12434479       0.02255906       0.01693721      -0.02068871
C        6.31629996       7.23080516       8.66854078       0.49144137       0.88695498      -0.85975083       0.04879609      -0.03917021       0.04657115       0.00456411
H        9.16831019       8.40660682       5.08467803      -0.10005251       0.04470907       0.61167772       0.07948657      -0.07697711       0.06231799       0.36002939
H        4.19067278       8.53804480       5.11418331      -0.01622356       0.05736312      -0.19527987       0.05323712      -0.05486899       0.02881058       0.38696868
18
Lattice="15.099991252438835 0.0 0.0 0.0 15.099991252438835 0.0 0.0 0.0 15.099991252438835" Properties=species:S:1:pos:R:3:momenta:R:3:forces:R:3:charge:R:1 energy=-1059.879192806485 free_energy=-1059.879192806485 dipole="-0.8933792082217419 0.2962706173141271 -0.2807108149403004" stress="0.0 0.0 0.0 0.0 0.0 0.0 0.0 0.0 0.0" pbc="T T T"
H        9.65889460       7.09898979       9.20874133       0.15389140      -0.12956404      -0.36745020      -0.01864618      -0.01586828      -0.03688261       0.06513874
C        8.73749068       7.73708691       7.38122809       0.17838420       0.04153304       0.84855401       0.02833857      -0.02780582      -0.00067658      -0.05684037
C       10.07883059       7.83217483       6.70644672      -2.07042663      -0.44329513      -0.38507149       0.02618625      -0.05692881       0.05333926       0.58369372
H        7.51436947       6.70046345      10.38400853       0.17025797      -0.13989037      -0.03512735      -0.01904145       0.01194418      -0.05123061       0.04707925
O       10.07411425       8.19837534       5.41790563      -0.79435830      -0.57190842       0.28570873      -0.05637336       0.03564473       0.05449325      -0.49135311
C        6.32987255       7.72558147       7.37219181       0.67540934       0.02132113       0.61401522      -0.02106103      -0.06233639      -0.03796791      -0.02949678
C        5.02679377       7.83921476       6.66692461       1.04477051      -0.25269294      -0.93080417      -0.00424094      -0.00364245      -0.01140651       0.58080545
O        5.09964784       8.51062655       5.51097188       0.34398542      -0.14016986      -0.81863703       0.00361504      -0.00000845      -0.02470465      -0.51258551
O        4.00411976       7.35505130       7.07302366      -0.68143073       0.06632678       0.90975903      -0.05194416       0.06307710      -0.00184931      -0.52275112
O       11.09513304       7.55402525       7.27645657       0.63277878       0.78366885       0.85404508       0.03228625       0.04192641       0.07965383      -0.49834733
C        8.71512675       7.27884962       8.70327174       0.18678345      -0.23621896      -0.64068249       0.02217043       0.09157948       0.00933550       0.01014365
H        5.36227154       6.98429833       9.12073734      -0.11260349       0.02874957       0.25452060       0.02913819       0.04450853       0.09687617       0.06403429
H        7.51360399       8.38950622       5.71887445      -0.13474130      -0.29039899       0.12033143      -0.00798940      -0.03069670      -0.01648147       0.04335844
C        7.53481986       8.00107487       6.73225048       0.21220879      -0.45651479      -0.22221914       0.01418470      -0.03731540      -0.00592142      -0.01216577
C        7.51314204       7.05631248       9.35883312      -0.18007472       0.73002697      -0.04358924       0.04091524      -0.08999177      -0.02756924      -0.02058439
C        6.31962315       7.23333773       8.67679178       0.49144137       0.88695498      -0.85975083       0.01989120      -0.00854051       0.01136788       0.00391313
H        9.18970382       8.38066045       5.07594787      -0.10005251       0.04470907       0.61167772      -0.02793754       0.03594157      -0.08916978       0.35936020
H        4.21749005       8.52318241       5.10410324      -0.01622356       0.05736312      -0.19527987      -0.00949181       0.00851260      -0.00120581       0.38659752
18
Lattice="15.099991252438835 0.0 0.0 0.0 15.099991252438835 0.0 0.0 0.0 15.099991252438835" Properties=species:S:1:pos:R:3:momenta:R:3:forces:R:3:charge:R:1 energy=-1059.889347120282 free_energy=-1059.889347120282 dipole="-0.8773177673362893 0.24394076180176616 -0.3080565186765105" stress="0.0 0.0 0.0 0.0 0.0 0.0 0.0 0.0 0.0" pbc="T T T"
H        9.66171425       7.09257750       9.19938866       0.15389140      -0.12956404      -0.36745020       0.05956376       0.02592198       0.00305563       0.06582441
C        8.73371968       7.72773168       7.37543658       0.17838420       0.04153304       0.84855401      -0.05718673      -0.00625668      -0.02929380      -0.05626672
C       10.07628145       7.84086131       6.71792631      -2.07042663      -0.44329513      -0.38507149       0.00769733       0.06581212      -0.04140451       0.58464381
H        7.51571176       6.69791849      10.37561929       0.17025797      -0.13989037      -0.03512735       0.02853151      -0.05929810       0.06069374       0.04710672
O       10.07815860       8.23209282       5.43546587      -0.79435830      -0.57190842       0.28570873       0.02456764      -0.01160360      -0.03025571      -0.49319861
C        6.32312401       7.70896127       7.36917786       0.67540934       0.02132113       0.61401522       0.01700763      -0.03773727       0.02230362      -0.02949640
C        5.01736258       7.84631550       6.67024710       1.04477051      -0.25269294      -0.93080417       0.03481311       0.01946420      -0.02411439       0.58040586
O        5.10742991       8.51365480       5.51136751       0.34398542      -0.14016986      -0.81863703      -0.03637605      -0.06573453      -0.01398428      -0.51320340
O        3.98044095       7.39269782       7.07565011      -0.68143073       0.06632678       0.90975903       0.03332337       0.04525070       0.02449520      -0.52197134
O       11.08936834       7.57596080       7.30078067       0.63277878       0.78366885       0.85404508       0.02212337       0.04872986      -0.03129442      -0.49861125
C        8.71967903       7.28154214       8.69929652       0.18678345      -0.23621896      -0.64068249      -0.02172761      -0.08468554      -0.01458774       0.01024129
H        5.37740397       6.99711565       9.15328687      -0.11260349       0.02874957       0.25452060      -0.01222354       0.02654161       0.01172948       0.06286291
H        7.49999643       8.34854771       5.70164892      -0.13474130      -0.29039899       0.12033143       0.03286769      -0.03356998       0.04686922       0.04368784
C        7.52871628       7.97809432       6.72328422       0.21220879      -0.45651479      -0.22221914      -0.03930342      -0.06378913      -0.01287226      -0.01143244
C        7.52208018       7.03996829       9.34959611      -0.18007472       0.73002697      -0.04358924      -0.07496287       0.06584083       0.00895861      -0.02109514
C        6.32470862       7.22750604       8.67895077       0.49144137       0.88695498      -0.85975083      -0.04628149      -0.00025921      -0.02502491       0.00393892
H        9.20120593       8.37648539       5.05290148      -0.10005251       0.04470907       0.61167772       0.04103865       0.01209707       0.06080144       0.36022970
H        4.22794577       8.52078024       5.09868403      -0.01622356       0.05736312      -0.19527987      -0.01347233       0.05327565      -0.01607493       0.38633383
18
Lattice="15.099991252438835 0.0 0.0 0.0 15.099991252438835 0.0 0.0 0.0 15.099991252438835" Properties=species:S:1:pos:R:3:momenta:R:3:forces:R:3:charge:R:1 energy=-1059.8987261846764 free_energy=-1059.8987261846764 dipole="-0.8655330117509357 0.2082814817873156 -0.3335443538069846" stress="0.0 0.0 0.0 0.0 0.0 0.0 0.0 0.0 0.0" pbc="T T T"
H        9.67150076       7.09625190       9.18336389       0.15389140      -0.12956404      -0.36745020      -0.07179451      -0.00777810       0.01235315       0.06599471
C        8.72635817       7.70687797       7.36501692       0.17838420       0.04153304       0.84855401       0.07502508      -0.05542390       0.02629461      -0.05701435
C       10.07677062       7.86449803       6.72160139      -2.07042663      -0.44329513      -0.38507149      -0.00226001      -0.03188955       0.01875251       0.58421176
H        7.52561866       6.67929169      10.37664267       0.17025797      -0.13989037      -0.03512735      -0.01108961       0.04030703      -0.04697050       0.04672196
O       10.09302072       8.26560705       5.44362134      -0.79435830      -0.57190842       0.28570873       0.00641416      -0.01137934      -0.00290943      -0.49187387
C        6.31451419       7.67972170       7.36674392       0.67540934       0.02132113       0.61401522      -0.00066589       0.03790323      -0.01247868      -0.02896205
C        5.01225830       7.85415619       6.66877911       1.04477051      -0.25269294      -0.93080417      -0.04192157      -0.04115350       0.03453238       0.58065379
O        5.11186235       8.49669483       5.49699289       0.34398542      -0.14016986      -0.81863703       0.04990723      -0.03844894      -0.02419291      -0.51335929
O        3.96343623       7.44985547       7.09435537      -0.68143073       0.06632678       0.90975903      -0.03951878       0.01887808       0.03648605      -0.52246634
O       11.08910239       7.62416963       7.31702774       0.63277878       0.78366885       0.85404508      -0.00812172       0.05588642       0.00200813      -0.49861427
C        8.71774583       7.26140996       8.69050088       0.18678345      -0.23621896      -0.64068249      -0.00063948       0.01810043      -0.00060604       0.00969222
H        5.37911092       7.02076566       9.18949589      -0.11260349       0.02874957       0.25452060      -0.04073181       0.02074708      -0.07165512       0.06262730
H        7.49534372       8.29345360       5.69113714      -0.13474130      -0.29039899       0.12033143      -0.01207678      -0.01318548      -0.04912309       0.04332897
C        7.51836017       7.93077207       6.71275621       0.21220879      -0.45651479      -0.22221914       0.05408554       0.01780878       0.00189212      -0.01158028
C        7.52003504       7.03324303       9.35052224      -0.18007472       0.73002697      -0.04358924       0.06494377      -0.07165299       0.00189109      -0.02130650
C        6.31800806       7.22229251       8.68585772       0.49144137       0.88695498      -0.85975083       0.03204799       0.00700616       0.03165245       0.00484897
H        9.22091015       8.38059263       5.04600004      -0.10005251       0.04470907       0.61167772      -0.05374609       0.03550210       0.00301136       0.36071448
H        4.23109145       8.53915784       5.08829350      -0.01622356       0.05736312      -0.19527987       0.00014248       0.01877251       0.03906193       0.38638277
18
Lattice="15.099991252438835 0.0 0.0 0.0 15.099991252438835 0.0 0.0 0.0 15.099991252438835" Properties=species:S:1:pos:R:3:momenta:R:3:forces:R:3:charge:R:1 energy=-1059.9056777206263 free_energy=-1059.9056777206263 dipole="-0.8691500726008226 0.19605909061304658 -0.33104318921708503" stress="0.0 0.0 0.0 0.0 0.0 0.0 0.0 0.0 0.0" pbc="T T T"
H        9.66607420       7.09490923       9.18705290       0.15389140      -0.12956404      -0.36745020       0.03655195      -0.04125444       0.03022183       0.06571329
C        8.73113854       7.68059705       7.35695431       0.17838420       0.04153304       0.84855401      -0.04385241       0.03916986      -0.01392733      -0.05660837
C       10.08004395       7.87529685       6.72290101      -2.07042663      -0.44329513      -0.38507149       0.00574566       0.01567476      -0.00499562       0.58422603
H        7.52887592       6.67450998      10.37338235       0.17025797      -0.13989037      -0.03512735      -0.00578230      -0.00450469       0.02053222       0.04699298
O       10.09416375       8.27597439       5.44399350      -0.79435830      -0.57190842       0.28570873      -0.07570353      -0.00018621      -0.00110118      -0.49187368
C        6.31495246       7.66677072       7.36360320       0.67540934       0.02132113       0.61401522       0.01828671      -0.02972724      -0.01403680      -0.02979606
C        5.00579444       7.85082944       6.67432072       1.04477051      -0.25269294      -0.93080417       0.05275647       0.04587611      -0.00476838       0.58057968
O        5.12047918       8.45795445       5.48362530       0.34398542      -0.14016986      -0.81863703      -0.01099300      -0.00485837       0.02000321      -0.51396112
O        3.94613180       7.49845126       7.11889199      -0.68143073       0.06632678       0.90975903       0.05909930       0.02567126       0.04033021      -0.52106990
O       11.09483335       7.67727274       7.32879821       0.63277878       0.78366885       0.85404508       0.01351688       0.00270741       0.01472426      -0.49840306
C        8.71822965       7.24544906       8.68472827       0.18678345      -0.23621896      -0.64068249       0.00408333      -0.00992751      -0.00399300       0.00990156
H        5.37192205       7.04823754       9.18642427      -0.11260349       0.02874957       0.25452060       0.01572782      -0.01979096      -0.01827961       0.06264730
H        7.49524584       8.25276451       5.67685125      -0.13474130      -0.29039899       0.12033143       0.00725341      -0.02172743       0.00236350       0.04339522
C        7.52170582       7.90189214       6.70418797       0.21220879      -0.45651479      -0.22221914      -0.03554206      -0.00881097      -0.02918365      -0.01124448
C        7.52272138       7.01414463       9.34491147      -0.18007472       0.73002697      -0.04358924      -0.04093448       0.04970021      -0.01114046      -0.02122532
C        6.31965946       7.22131460       8.68744369       0.49144137       0.88695498      -0.85975083      -0.02348133      -0.00444441      -0.05901891       0.00429481
H        9.21896942       8.40008021       5.05181192      -0.10005251       0.04470907       0.61167772       0.01514693      -0.00181458       0.01932551       0.36031066
H        4.23410655       8.56236295       5.09882654      -0.01622356       0.05736312      -0.19527987       0.00812064      -0.03175278       0.01294418       0.38612045
18
Lattice="15.099991252438835 0.0 0.0 0.0 15.099991252438835 0.0 0.0 0.0 15.099991252438835" Properties=species:S:1:pos:R:3:momenta:R:3:forces:R:3:charge:R:1 energy=-1059.9090436262127 free_energy=-1059.9090436262127 dipole="-0.8701185958013016 0.17269523703679857 -0.343407217413578" stress="0.0 0.0 0.0 0.0 0.0 0.0 0.0 0.0 0.0" pbc="T T T"
H        9.66442166       7.08064464       9.19003469       0.15389140      -0.12956404      -0.36745020      -0.02797632       0.00192866      -0.03525427       0.06558907
C        8.72986377       7.67346353       7.35343711       0.17838420       0.04153304       0.84855401       0.03280141      -0.01957323       0.01930315      -0.05667671
C       10.07900375       7.88655050       6.72664123      -2.07042663      -0.44329513      -0.38507149      -0.01296442       0.02103506       0.00173180       0.58440538
H        7.52729235       6.67402348      10.37136575       0.17025797      -0.13989037      -0.03512735      -0.02147527       0.01339083      -0.00618698       0.04680446
O       10.08699319       8.28678094       5.44789765      -0.79435830      -0.57190842       0.28570873       0.02531691       0.00785958      -0.01352116      -0.49241911
C        6.31917720       7.65287240       7.35563256       0.67540934       0.02132113       0.61401522       0.01969209       0.01835766      -0.00029235      -0.02965645
C        5.01253139       7.85904163       6.67948887       1.04477051      -0.25269294      -0.93080417      -0.02458507      -0.03538971       0.00676086       0.58059955
O        5.12587438       8.44234544       5.47871604       0.34398542      -0.14016986      -0.81863703      -0.01613098       0.01682333      -0.00759914      -0.51355001
O        3.95279983       7.53881766       7.14827672      -0.68143073       0.06632678       0.90975903      -0.00924600       0.04803912      -0.01032712      -0.52246664
O       11.09492749       7.70971222       7.33764277       0.63277878       0.78366885       0.85404508      -0.01559221      -0.00448119      -0.01971685      -0.49852844
C        8.71782763       7.23703476       8.68170928       0.18678345      -0.23621896      -0.64068249      -0.00723798       0.01626945       0.02070301       0.00999416
H        5.36906198       7.05355900       9.17837860      -0.11260349       0.02874957       0.25452060       0.00792091      -0.01878995      -0.00349116       0.06331047
H        7.49442352       8.21954096       5.66183728      -0.13474130      -0.29039899       0.12033143       0.01830381       0.00211628      -0.00527967       0.04386195
C        7.52248999       7.88202286       6.69287587       0.21220879      -0.45651479      -0.22221914       0.05167775      -0.00103001       0.01799154      -0.01140252
C        7.51990852       7.01383362       9.34191006      -0.18007472       0.73002697      -0.04358924       0.01032748      -0.02669716       0.01576141      -0.02127846
C        6.31872475       7.21844483       8.68127667       0.49144137       0.88695498      -0.85975083       0.01986347      -0.00935020       0.01946634       0.00448680
H        9.21245395       8.40842112       5.05568385      -0.10005251       0.04470907       0.61167772      -0.02143891      -0.01083851       0.01532766       0.36053549
H        4.23727240       8.56170219       5.10590385      -0.01622356       0.05736312      -0.19527987      -0.02925668      -0.01967000      -0.01537708       0.38639102
18
Lattice="15.099991252438835 0.0 0.0 0.0 15.099991252438835 0.0 0.0 0.0 15.099991252438835" Properties=species:S:1:pos:R:3:momenta:R:3:forces:R:3:charge:R:1 energy=-1059.9103387261403 free_energy=-1059.9103387261403 dipole="-0.8713854290811541 0.15177645712380847 -0.34146011673759585" stress="0.0 0.0 0.0 0.0 0.0 0.0 0.0 0.0 0.0" pbc="T T T"
H        9.66353192       7.07494904       9.18720581       0.15389140      -0.12956404      -0.36745020       0.01972637       0.01018981       0.01843108       0.06551860
C        8.73332251       7.66935751       7.35465492       0.17838420       0.04153304       0.84855401      -0.00731784       0.01005301      -0.00151866      -0.05641105
C       10.07945206       7.89376000       6.72687885      -2.07042663      -0.44329513      -0.38507149       0.01029580      -0.02684896       0.00378029       0.58423521
H        7.52086390       6.67533938      10.37334340       0.17025797      -0.13989037      -0.03512735      -0.00063580      -0.00245136      -0.00532215       0.04707689
O       10.08417624       8.29255471       5.44741279      -0.79435830      -0.57190842       0.28570873      -0.00933266       0.01103261       0.01505810      -0.49225067
C        6.32330576       7.64890771       7.35191738       0.67540934       0.02132113       0.61401522      -0.02459750      -0.00650528      -0.00484091      -0.02980369
C        5.01371320       7.86169944       6.68025415       1.04477051      -0.25269294      -0.93080417      -0.00087303       0.04297169      -0.00324534       0.58053143
O        5.12251980       8.43644871       5.47456756       0.34398542      -0.14016986      -0.81863703       0.00956668      -0.01407054      -0.02259109      -0.51365899
O        3.95225359       7.56559325       7.15995816      -0.68143073       0.06632678       0.90975903      -0.01703713      -0.00554518       0.02042121      -0.52232710
O       11.09628613       7.72223451       7.33730110       0.63277878       0.78366885       0.85404508       0.02190718       0.00230223      -0.00188303      -0.49847376
C        8.71714051       7.23583515       8.68362021       0.18678345      -0.23621896      -0.64068249       0.01981304      -0.01560122      -0.00979181       0.01008023
H        5.37116596       7.05049343       9.17416549      -0.11260349       0.02874957       0.25452060      -0.01316477      -0.01444041      -0.00131870       0.06338405
H        7.50198131       8.20722310       5.65780319      -0.13474130      -0.29039899       0.12033143       0.01060597       0.00978287      -0.00248727       0.04374658
C        7.52824136       7.87453036       6.69057289       0.21220879      -0.45651479      -0.22221914      -0.02193056       0.01042399       0.00278064      -0.01155147
C        7.51929715       7.00971621       9.34241640      -0.18007472       0.73002697      -0.04358924       0.01285800       0.00528650      -0.00732160      -0.02112955
C        6.32088175       7.21518297       8.67814017       0.49144137       0.88695498      -0.85975083      -0.00002718       0.00125249       0.00394116       0.00444190
H        9.20559482       8.40947515       5.06212875      -0.10005251       0.04470907       0.61167772      -0.00412866      -0.00606610      -0.00409597       0.36021599
H        4.23131977       8.55551111       5.10636761      -0.01622356       0.05736312      -0.19527987      -0.00572792      -0.01176616       0.00000405       0.38637539
18
Lattice="15.099991252438835 0.0 0.0 0.0 15.099991252438835 0.0 0.0 0.0 15.099991252438835" Properties=species:S:1:pos:R:3:momenta:R:3:forces:R:3:charge:R:1 energy=-1059.9109998660283 free_energy=-1059.9109998660283 dipole="-0.8741839642839696 0.1433719079362804 -0.33866996050800463" stress="0.0 0.0 0.0 0.0 0.0 0.0 0.0 0.0 0.0" pbc="T T T"
H        9.66688624       7.07570713       9.18971472       0.15389140      -0.12956404      -0.36745020      -0.00380293       0.00577811       0.00533007       0.06556773
C        8.73493614       7.66901136       7.35626974       0.17838420       0.04153304       0.84855401      -0.00268143      -0.00494998      -0.00802881      -0.05659088
C       10.08126079       7.89228129       6.72719136      -2.07042663      -0.44329513      -0.38507149      -0.00080708       0.01239515      -0.00653939       0.58423973
H        7.51765442       6.67638461      10.37240640       0.17025797      -0.13989037      -0.03512735       0.01262292      -0.01195941       0.00189434       0.04702114
O       10.08077560       8.29552895       5.44913990      -0.79435830      -0.57190842       0.28570873      -0.00281315       0.00277664      -0.00405121      -0.49240752
C        6.32274708       7.65084991       7.35068740       0.67540934       0.02132113       0.61401522       0.00987533       0.00941692       0.00490918      -0.02970473
C        5.01224928       7.86798677       6.68107946       1.04477051      -0.25269294      -0.93080417       0.00251647      -0.01287998      -0.00033642       0.58038428
O        5.11939863       8.43136629       5.46968433       0.34398542      -0.14016986      -0.81863703      -0.00708625      -0.01691989       0.00892029      -0.51340904
O        3.95125033       7.57687769       7.16594512      -0.68143073       0.06632678       0.90975903       0.00950183       0.02062866       0.00165434      -0.52238795
O       11.10074491       7.72263491       7.33375000       0.63277878       0.78366885       0.85404508      -0.00867366      -0.01227527       0.00565382      -0.49830685
C        8.72013119       7.23402156       8.68462166       0.18678345      -0.23621896      -0.64068249      -0.00784997       0.00601912       0.00000152       0.01018881