18
Lattice="15.099991252438835 0.0 0.0 0.0 15.099991252438835 0.0 0.0 0.0 15.099991252438835" Properties=species:S:1:pos:R:3:momenta:R:3:forces:R:3:charge:R:1 energy=-1059.7203803996697 free_energy=-1059.7203803996697 dipole="-0.7039653480982928 0.5744173203003238 -0.04420479266826854" stress="0.0 0.0 0.0 0.0 0.0 0.0 0.0 0.0 0.0" pbc="T T T"
H        9.59798569       6.74349583       9.09107511      -0.05210020       0.03469387      -0.05696254      -0.06093510       0.23027381      -0.08178816       0.06259920
C        8.73365900       7.61856001       7.30767210       0.58140501       0.33169193      -1.37549663      -0.03843875      -0.00131262       0.17578889      -0.05740826
C       10.14412196       7.86026508       6.77677029       0.06439229      -0.98390295       1.05944299      -0.26533601       0.12344719       0.02457695       0.58487215
H        7.38531473       6.43148985      10.22168006       0.23043343      -0.04233945       0.10886119       0.25506901      -0.15508799       0.17229911       0.04698362
O       10.34681624       8.88886789       5.91936512       0.98251759       0.44216061       1.02811816      -0.33604262      -0.21402463       0.38893989      -0.49755730
C        6.30819705       7.56690067       7.24771049       1.28520540      -0.83189319      -0.51060160       0.21361479       0.13382484      -0.10893727      -0.03135573
C        4.99797811       7.83519944       6.61636155      -0.91405282      -0.34948708       1.49567132      -0.14962441       0.06096235      -0.04774929       0.57741414
O        5.03407481       8.38987193       5.39904867      -0.18068795      -0.16493227      -0.69207236       0.24009493      -0.12667685       0.10041033      -0.51139402
O        3.94332212       7.60359983       7.14971736      -0.50127247       1.56313451      -0.22415145      -0.05866519      -0.13702953       0.17297553      -0.53117063
O       11.05304479       7.16989436       7.13767785      -1.06370394       0.75109096      -0.30355096      -0.07833700      -0.02244218      -0.12463725      -0.48863334
C        8.67672089       7.03859060       8.59112495       0.05696407      -0.46205571      -0.00132467       0.06582198       0.05139183      -0.18215051       0.00667141
H        5.34907212       6.72503533       8.98369576      -0.09795574       0.02378253      -0.32186799      -0.22047663       0.19973999      -0.00879720       0.06405674
H        7.51760876       8.41045848       5.68839897       0.05851671       0.54018487       0.07269473       0.08172911      -0.22613943       0.01755790       0.04960116
C        7.52721184       7.88989838       6.64440766       1.33715315      -0.35611068      -0.17952781       0.37820072       0.36822276       0.14972118      -0.00795271
C        7.45785572       6.81212377       9.21556332      -0.71791188      -1.27165822       0.67050881       0.24347581      -0.15574713      -0.14302239      -0.02311491
C        6.28230270       7.02799016       8.53121996      -0.99868654       0.57705308      -0.84696103      -0.04398471      -0.10596998      -0.08956233       0.00405221
H        9.67962219       9.58853016       5.94374780       0.21508275       0.19802572       0.12391909      -0.09438783      -0.21147294      -0.08109350       0.36438431
H        4.10005910       8.46305955       5.15347412      -0.28529884       0.00056146      -0.04669926      -0.13177810       0.18804052      -0.33453188       0.38795194
18
Lattice="15.099991252438835 0.0 0.0 0.0 15.099991252438835 0.0 0.0 0.0 15.099991252438835" Properties=species:S:1:pos:R:3:momenta:R:3:forces:R:3:charge:R:1 energy=-1059.818368531124 free_energy=-1059.818368531124 dipole="-0.7405071634845087 0.6332586022801152 -0.10163917746880369" stress="0.0 0.0 0.0 0.0 0.0 0.0 0.0 0.0 0.0" pbc="T T T"
H        9.61182757       6.79227696       9.08473828      -0.05210020       0.03469387      -0.05696254       0.04898832       0.01567273       0.07779135       0.06302387
C        8.72963044       7.63486751       7.33387726       0.58140501       0.33169193      -1.37549663      -0.02418744       0.03822761       0.06815421      -0.05580049
C       10.11410209       7.85409816       6.80100455       0.06439229      -0.98390295       1.05944299       0.19442476       0.02424559      -0.11570214       0.58584849
H        7.44981918       6.39772255      10.22297366       0.23043343      -0.04233945       0.10886119      -0.03457938      -0.20310818       0.00244769       0.04651442
O       10.30335656       8.88022178       5.95763750       0.98251759       0.44216061       1.02811816       0.03683153       0.09296461      -0.04728561      -0.49549576
C        6.32697619       7.59356529       7.25389936       1.28520540      -0.83189319      -0.51060160      -0.22757506       0.06269930       0.02710316      -0.03139698
C        4.99443457       7.83641625       6.62612497      -0.91405282      -0.34948708       1.49567132      -0.27985116      -0.02747171       0.03264510       0.57911194
O        5.03160089       8.37182886       5.40078839      -0.18068795      -0.16493227      -0.69207236       0.27776269       0.03213998       0.01164698      -0.51005000
O        3.94876981       7.57984714       7.17294844      -0.50127247       1.56313451      -0.22415145       0.27431097       0.04774714      -0.10441719      -0.52767030
O       11.02981507       7.14795452       7.11759613      -1.06370394       0.75109096      -0.30355096      -0.10830156      -0.06145728       0.00745362      -0.49634418
C        8.67782326       7.03636329       8.59519674       0.05696407      -0.46205571      -0.00132467       0.03731153       0.03480206      -0.04547109       0.00546157
H        5.32478380       6.77875380       8.96511874      -0.09795574       0.02378253      -0.32186799       0.05981859       0.02281522      -0.00767883       0.06525825
H        7.55169267       8.37902395       5.67519266       0.05851671       0.54018487       0.07269473       0.05019071       0.08118117      -0.01032808       0.04960959
C        7.54482180       7.94432523       6.66737421       1.33715315      -0.35611068      -0.17952781      -0.05437384      -0.22929169      -0.01613994      -0.00991838
C        7.46726921       6.76476240       9.20547113      -0.71791188      -1.27165822       0.67050881      -0.01338046       0.07479316       0.11901352      -0.02129945
C        6.28920867       7.01502893       8.52574843      -0.99868654       0.57705308      -0.84696103       0.02568558       0.10440731      -0.01945440       0.00283601
H        9.61690134       9.55420489       5.92721017       0.21508275       0.19802572       0.12391909      -0.24822241      -0.07857089      -0.00600872       0.36403045
H        4.12213472       8.50256983       5.08581051      -0.28529884       0.00056146      -0.04669926      -0.01485337      -0.03179612       0.02623037       0.38628093
18
Lattice="15.099991252438835 0.0 0.0 0.0 15.099991252438835 0.0 0.0 0.0 15.099991252438835" Properties=species:S:1:pos:R:3:momenta:R:3:forces:R:3:charge:R:1 energy=-1059.8552333646367 free_energy=-1059.8552333646367 dipole="-0.7585119833826905 0.6105402379462116 -0.124156728738945" stress="0.0 0.0 0.0 0.0 0.0 0.0 0.0 0.0 0.0" pbc="T T T"
H        9.62352571       6.81985346       9.10163193      -0.05210020       0.03469387      -0.05696254      -0.02591276      -0.00319698       0.00115129       0.06258071
C        8.72777828       7.65053108       7.34576623       0.58140501       0.33169193      -1.37549663      -0.00995372      -0.08571410      -0.00345967      -0.05832491
C       10.10970705       7.86039233       6.79095573       0.06439229      -0.98390295       1.05944299      -0.05403178      -0.06274724       0.05096356       0.58557430
H        7.46220200       6.32434937      10.21240999       0.23043343      -0.04233945       0.10886119      -0.06938814       0.04217552      -0.16065256       0.04661421
O       10.28572317       8.90470211       5.96898940       0.98251759       0.44216061       1.02811816      -0.11099078       0.03291285       0.02606505      -0.49036111
C        6.32044622       7.61419589       7.26313393       1.28520540      -0.83189319      -0.51060160       0.12225045      -0.08611625       0.05209112      -0.03171871
C        4.99400018       7.84279718       6.62360552      -0.91405282      -0.34948708       1.49567132       0.08880857      -0.01857679       0.09347088       0.58058159
O        5.06432746       8.37658675       5.39900941      -0.18068795      -0.16493227      -0.69207236      -0.05206638       0.01744910       0.04620592      -0.50996735
O        3.95147716       7.57546267       7.16458840      -0.50127247       1.56313451      -0.22415145       0.04930032       0.09505279      -0.20225754      -0.52522330
O       11.00577372       7.12723092       7.09677082      -1.06370394       0.75109096      -0.30355096       0.11798151       0.06401630      -0.11440256      -0.49602581
C        8.68597977       7.04802769       8.60539077       0.05696407      -0.46205571      -0.00132467      -0.05380078       0.03104786       0.12348439       0.00665545
H        5.32759918       6.80650490       8.96416072      -0.09795574       0.02378253      -0.32186799       0.05384260      -0.00661105       0.08504377       0.06428533
H        7.57626659       8.37844177       5.68040932       0.05851671       0.54018487       0.07269473      -0.05821995      -0.03205985      -0.04279428       0.04707544
C        7.54399173       7.92369078       6.66415714       1.33715315      -0.35611068      -0.17952781       0.01038933       0.15484802       0.06666264      -0.01057727
C        7.47510182       6.76636987       9.21828124      -0.71791188      -1.27165822       0.67050881      -0.04139033      -0.01834421      -0.06863754      -0.02113826
C        6.29731985       7.03888626       8.53604809      -0.99868654       0.57705308      -0.84696103       0.01285591      -0.03002822       0.10332658       0.00180720
H        9.52402737       9.49777919       5.91676620       0.21508275       0.19802572       0.12391909      -0.02304701      -0.06847739      -0.04933880       0.36218344
H        4.15972057       8.50802913       5.06663629      -0.28529884       0.00056146      -0.04669926       0.04337295      -0.02563035      -0.00692225       0.38597903
18
Lattice="15.099991252438835 0.0 0.0 0.0 15.099991252438835 0.0 0.0 0.0 15.099991252438835" Properties=species:S:1:pos:R:3:momenta:R:3:forces:R:3:charge:R:1 energy=-1059.876138385883 free_energy=-1059.876138385883 dipole="-0.7711081738907521 0.5472000418700487 -0.09955779930915559" stress="0.0 0.0 0.0 0.0 0.0 0.0 0.0 0.0 0.0" pbc="T T T"
H        9.62484821       6.83333002       9.11859017      -0.05210020       0.03469387      -0.05696254       0.00345696      -0.03295272       0.02762820       0.06246799
C        8.73078899       7.64453564       7.35699067       0.58140501       0.33169193      -1.37549663       0.05009982       0.03792424       0.00529377      -0.05725922
C       10.10559548       7.85618765       6.78725780       0.06439229      -0.98390295       1.05944299      -0.02698152       0.05669618      -0.02641486       0.58565311
H        7.44758149       6.28096557      10.18571345       0.23043343      -0.04233945       0.10886119      -0.00270857       0.02130831       0.14213747       0.04712074
O       10.24711460       8.92014697       5.98365145       0.98251759       0.44216061       1.02811816      -0.02798044      -0.00594645      -0.05937837      -0.49058404
C        6.32847203       7.61924497       7.27830567       1.28520540      -0.83189319      -0.51060160       0.00251615       0.08987919      -0.00507990      -0.03040250
C        5.01458644       7.85210779       6.62211674      -0.91405282      -0.34948708       1.49567132      -0.02799245       0.05717157      -0.03844886       0.58004523
O        5.09974134       8.39158550       5.40096090      -0.18068795      -0.16493227      -0.69207236       0.02581312       0.02897515      -0.05551350      -0.51122604
O        3.95569336       7.58840701       7.12899681      -0.50127247       1.56313451      -0.22415145       0.00683808      -0.02263819       0.03876061      -0.52563695
O       11.01960975       7.13126720       7.05430184      -1.06370394       0.75109096      -0.30355096       0.00924553       0.03332227      -0.00777000      -0.49502599
C        8.68778312       7.06101525       8.62414587       0.05696407      -0.46205571      -0.00132467       0.01734793      -0.08298996      -0.05688157       0.00641422
H        5.33768164       6.81781393       8.99318203      -0.09795574       0.02378253      -0.32186799      -0.04972088      -0.02948949       0.02401151       0.06404975
H        7.57293400       8.36752572       5.68098056       0.05851671       0.54018487       0.07269473      -0.02603248      -0.04669099       0.08776993       0.04805116
C        7.54893672       7.93694058       6.67941206       1.33715315      -0.35611068      -0.17952781       0.02771434      -0.05826270      -0.01142715      -0.01225803
C        7.47492122       6.76387680       9.21964688      -0.71791188      -1.27165822       0.67050881       0.02614478      -0.03590944       0.01114510      -0.02052271
C        6.29878045       7.04810425       8.55080112      -0.99868654       0.57705308      -0.84696103      -0.03731355      -0.02959788      -0.03999237       0.00199619
H        9.44479570       9.45029213       5.89451142       0.21508275       0.19802572       0.12391909      -0.03614036       0.01174641      -0.01655228       0.36097920
H        4.19510329       8.50048436       5.05914569      -0.28529884       0.00056146      -0.04669926       0.06569355       0.00745451      -0.01928773       0.38613790
18
Lattice="15.099991252438835 0.0 0.0 0.0 15.099991252438835 0.0 0.0 0.0 15.099991252438835" Properties=species:S:1:pos:R:3:momenta:R:3:forces:R:3:charge:R:1 energy=-1059.8863524607923 free_energy=-1059.8863524607923 dipole="-0.7887210542736769 0.5267598521087438 -0.08183907052270344" stress="0.0 0.0 0.0 0.0 0.0 0.0 0.0 0.0 0.0" pbc="T T T"
H        9.62490779       6.82427030       9.13492941      -0.05210020       0.03469387      -0.05696254      -0.00803701      -0.06438936      -0.00659959       0.06176590
C        8.73992561       7.64152883       7.36877419       0.58140501       0.33169193      -1.37549663      -0.04185557      -0.07341811       0.00500976      -0.05635127
C       10.10233642       7.86794939       6.77734099       0.06439229      -0.98390295       1.05944299       0.00644945      -0.01399762      -0.00614192       0.58550704
H        7.43985282       6.27858399      10.20247807       0.23043343      -0.04233945       0.10886119       0.02813779       0.02454787      -0.04455086       0.04685824
O       10.21203995       8.92875172       5.96416416       0.98251759       0.44216061       1.02811816      -0.04787107      -0.02283384      -0.03660494      -0.49047538
C        6.33152944       7.63667957       7.29501356       1.28520540      -0.83189319      -0.51060160      -0.03763412      -0.11009142       0.01037184      -0.03052254
C        5.02729613       7.87268897       6.61793194      -0.91405282      -0.34948708       1.49567132       0.00951814      -0.04551549       0.01710484       0.57985729
O        5.12840124       8.40724209       5.39445458      -0.18068795      -0.16493227      -0.69207236       0.04046252       0.00765129       0.05630622      -0.51146912
O        3.96514597       7.59544913       7.11052875      -0.50127247       1.56313451      -0.22415145      -0.01963235       0.03702311      -0.00670710      -0.52497859
O       11.03011065       7.15404186       7.02649775      -1.06370394       0.75109096      -0.30355096       0.00420222       0.05263350       0.02106363      -0.49497187
C        8.69059677       7.03951943       8.62831761       0.05696407      -0.46205571      -0.00132467       0.00052089       0.03282546       0.03100822       0.00713088
H        5.33389963       6.81504004       9.01085097      -0.09795574       0.02378253      -0.32186799       0.02521634       0.01342844      -0.05744908       0.06378915
H        7.56444682       8.35135264       5.69715579       0.05851671       0.54018487       0.07269473       0.05387035       0.04235412      -0.03274876       0.04842096
C        7.55583482       7.92983687       6.69541323       1.33715315      -0.35611068      -0.17952781      -0.04520379       0.01715063       0.03207369      -0.01368623
C        7.47345251       6.74489870       9.22314018      -0.71791188      -1.27165822       0.67050881       0.00166245       0.02283823       0.03432632      -0.02071906
C        6.29443961       7.04230877       8.55860886      -0.99868654       0.57705308      -0.84696103       0.02491935       0.02673295       0.03875573       0.00284112
H        9.39160923       9.43109737       5.87508385       0.21508275       0.19802572       0.12391909      -0.01630036       0.03157787      -0.01436689       0.36047721
H        4.22914243       8.50259168       5.03802724      -0.28529884       0.00056146      -0.04669926       0.02157478       0.02148237      -0.04085110       0.38652625
18
Lattice="15.099991252438835 0.0 0.0 0.0 15.099991252438835 0.0 0.0 0.0 15.099991252438835" Properties=species:S:1:pos:R:3:momenta:R:3:forces:R:3:charge:R:1 energy=-1059.895715161483 free_energy=-1059.895715161483 dipole="-0.7936513525733947 0.48721070626552054 -0.07622055746834824" stress="0.0 0.0 0.0 0.0 0.0 0.0 0.0 0.0 0.0" pbc="T T T"
H        9.62205823       6.78497625       9.14683998      -0.05210020       0.03469387      -0.05696254       0.02292363      -0.00252800      -0.04732769       0.06162945
C        8.73945402       7.61983519       7.37647596       0.58140501       0.33169193      -1.37549663       0.01209216       0.07298360      -0.00382848      -0.05525866
C       10.08921965       7.87772354       6.76442249       0.06439229      -0.98390295       1.05944299      -0.02331919      -0.00764683       0.01725186       0.58541210
H        7.44388615       6.28440057      10.21875215       0.23043343      -0.04233945       0.10886119       0.01472360      -0.00487158       0.02494102       0.04702201
O       10.15641829       8.92481091       5.92676939       0.98251759       0.44216061       1.02811816       0.00077953      -0.04670925       0.00569905      -0.49199059
C        6.32938823       7.62055043       7.30636757       1.28520540      -0.83189319      -0.51060160       0.03867415       0.04860023      -0.03746673      -0.03006763
C        5.03505865       7.87745673       6.61943519      -0.91405282      -0.34948708       1.49567132      -0.01480263      -0.00224446       0.00069285       0.58036756
O        5.16774702       8.42564067       5.40407107      -0.18068795      -0.16493227      -0.69207236       0.00784842      -0.03913067      -0.01193349      -0.51244322
O        3.96133363       7.61536012       7.09318510      -0.50127247       1.56313451      -0.22415145      -0.01532999      -0.00473702       0.00372462      -0.52352086
O       11.04411249       7.20076295       7.01240217      -1.06370394       0.75109096      -0.30355096       0.00403695       0.00848381       0.04084778      -0.49464433
C        8.69422192       7.02337132       8.63855327       0.05696407      -0.46205571      -0.00132467       0.00438472      -0.01361465       0.00379646       0.00742640
H        5.33212964       6.81326765       9.01138420      -0.09795574       0.02378253      -0.32186799      -0.02808785      -0.00808199       0.06554678       0.06344450
H        7.57513728       8.34883962       5.71594636       0.05851671       0.54018487       0.07269473      -0.01268398       0.01810327      -0.00094214       0.04834657
C        7.55339862       7.92133930       6.71271927       1.33715315      -0.35611068      -0.17952781       0.04452470      -0.03577263      -0.04698637      -0.01410239
C        7.47587878       6.74375238       9.23853850      -0.71791188      -1.27165822       0.67050881      -0.02038075       0.01975971      -0.02670163      -0.02086374
C        6.29673116       7.04120564       8.57475605      -0.99868654       0.57705308      -0.84696103      -0.02587829      -0.03738225      -0.02956069       0.00243620
H        9.33458210       9.42606518       5.85101007       0.21508275       0.19802572       0.12391909      -0.04850904       0.00055632       0.00233544       0.36065009
H        4.28421197       8.51447286       5.00708236      -0.28529884       0.00056146      -0.04669926       0.03900383       0.03423240       0.03991134       0.38615652
18
Lattice="15.099991252438835 0.0 0.0 0.0 15.099991252438835 0.0 0.0 0.0 15.099991252438835" Properties=species:S:1:pos:R:3:momenta:R:3:forces:R:3:charge:R:1 energy=-1059.898380545998 free_energy=-1059.898380545998 dipole="-0.794162202303424 0.48811312234881976 -0.0703301043947126" stress="0.0 0.0 0.0 0.0 0.0 0.0 0.0 0.0 0.0" pbc="T T T"
H        9.62564119       6.77613952       9.13746055      -0.05210020       0.03469387      -0.05696254      -0.00668404       0.00825491      -0.00436130       0.06196806
C        8.73936107       7.62339004       7.38099156       0.58140501       0.33169193      -1.37549663      -0.01572358      -0.01373974      -0.03353509      -0.05541267
C       10.08504710       7.88092638       6.76660262       0.06439229      -0.98390295       1.05944299       0.00676411       0.01335479       0.00262851       0.58551049
H        7.44793390       6.28597770      10.22097967       0.23043343      -0.04233945       0.10886119      -0.01293197      -0.01074937       0.01766483       0.04686501
O       10.13838819       8.91799702       5.91556384       0.98251759       0.44216061       1.02811816       0.01884334      -0.01012127      -0.00656150      -0.49238923
C        6.33161413       7.61902240       7.30708828       1.28520540      -0.83189319      -0.51060160      -0.02791946      -0.02807496      -0.00024252      -0.03030254
C        5.03772669       7.87665144       6.62023992      -0.91405282      -0.34948708       1.49567132       0.00523730      -0.01128805      -0.03365009       0.58044929
O        5.18166565       8.41985490       5.40438981      -0.18068795      -0.16493227      -0.69207236       0.01168460       0.00273106      -0.02577470      -0.51273473
O        3.96037149       7.62042035       7.08869946      -0.50127247       1.56313451      -0.22415145       0.01346096       0.00681857       0.01573823      -0.52326836
O       11.04590257       7.21438575       7.02010603      -1.06370394       0.75109096      -0.30355096       0.00105960       0.01775859       0.02901011      -0.49478723
C        8.69338586       7.02037017       8.63968160       0.05696407      -0.46205571      -0.00132467       0.01081461       0.00708930      -0.02857178       0.00725276
H        5.33109002       6.81378462       9.02211247      -0.09795574       0.02378253      -0.32186799       0.01488184       0.00607643      -0.00972139       0.06342451
H        7.57653998       8.35300966       5.71688200       0.05851671       0.54018487       0.07269473      -0.01191467      -0.01857543       0.01807687       0.04877458
C        7.55582781       7.91606631       6.71032148       1.33715315      -0.35611068      -0.17952781      -0.03387126       0.03835821       0.02900499      -0.01370618
C        7.47430364       6.74351650       9.23948223      -0.71791188      -1.27165822       0.67050881       0.02529784      -0.02453396      -0.00268462      -0.02084714
C        6.29408126       7.03632814       8.57476013      -0.99868654       0.57705308      -0.84696103       0.02185294       0.02122022       0.01966052       0.00271770
H        9.31387427       9.41771749       5.84715271       0.21508275       0.19802572       0.12391909      -0.01053978      -0.02506416       0.00104250       0.36041964
H        4.30221301       8.52827295       5.00619678      -0.28529884       0.00056146      -0.04669926      -0.01031237       0.02048486       0.01227643       0.38606604
18
Lattice="15.099991252438835 0.0 0.0 0.0 15.099991252438835 0.0 0.0 0.0 15.099991252438835" Properties=species:S:1:pos:R:3:momenta:R:3:forces:R:3:charge:R:1 energy=-1059.8999046656552 free_energy=-1059.8999046656552 dipole="-0.7988380351780933 0.48460611749082433 -0.07012156100966258" stress="0.0 0.0 0.0 0.0 0.0 0.0 0.0 0.0 0.0" pbc="T T T"
H        9.62791017       6.77225278       9.12848559      -0.05210020       0.03469387      -0.05696254       0.01191786      -0.00011217       0.00782111       0.06221798
C        8.73699742       7.62340100       7.37832920       0.58140501       0.33169193      -1.37549663       0.00459817      -0.01590583       0.01360507      -0.05585709
C       10.08323496       7.88515452       6.76832650       0.06439229      -0.98390295       1.05944299       0.01095114      -0.00192458       0.00683385       0.58529219
H        7.44855362       6.28595547      10.22425862       0.23043343      -0.04233945       0.10886119       0.01373857      -0.00395415      -0.02142546       0.04695752
O       10.13034866       8.91241105       5.90588306       0.98251759       0.44216061       1.02811816       0.00605199       0.00308732       0.00484508      -0.49194337
C        6.33002912       7.61296040       7.30795807       1.28520540      -0.83189319      -0.51060160       0.00256559       0.00472941       0.00863777      -0.03009283
C        5.04064093       7.87327919       6.61597577      -0.91405282      -0.34948708       1.49567132      -0.00476462       0.00828321       0.01699029       0.58036848
O        5.19048014       8.41454044       5.39948319      -0.18068795      -0.16493227      -0.69207236      -0.01306768      -0.00003511       0.01281642      -0.51280270
O        3.96188300       7.62682976       7.08625710      -0.50127247       1.56313451      -0.22415145      -0.01214667       0.00806282      -0.01343212      -0.52321708
O       11.04793353       7.22970243       7.03589667      -1.06370394       0.75109096      -0.30355096       0.01011022       0.01592183       0.01602681      -0.49501786
C        8.69414264       7.01699564       8.63505789       0.05696407      -0.46205571      -0.00132467       0.00131641      -0.01024781       0.01573741       0.00747999
H        5.33439243       6.81486340       9.02838650      -0.09795574       0.02378253      -0.32186799       0.00222786      -0.00013806      -0.00637879       0.06325166
H        7.57149662       8.35300012       5.72001654       0.05851671       0.54018487       0.07269473      -0.01790859       0.00992408      -0.01787770       0.04895999
C        7.55195889       7.91883161       6.71334796       1.33715315      -0.35611068      -0.17952781       0.00752963      -0.01826359      -0.00741997      -0.01399138
C        7.47757842       6.73939384       9.23980622      -0.71791188      -1.27165822       0.67050881      -0.00641516       0.00698639       0.00429028      -0.02083968
C        6.29615087       7.03555026       8.57824500      -0.99868654       0.57705308      -0.84696103      -0.00184627      -0.00622874      -0.00236746       0.00293152
H        9.30063450       9.40454493       5.84384104       0.21508275       0.19802572       0.12391909       0.00042426      -0.00625723      -0.02953378       0.36016024
H        4.31060191       8.54416448       5.00915624      -0.28529884       0.00056146      -0.04669926      -0.01528270       0.00607219      -0.00916881       0.38614242
18
Lattice="15.099991252438835 0.0 0.0 0.0 15.099991252438835 0.0 0.0 0.0 15.099991252438835" Properties=species:S:1:pos:R:3:momenta:R:3:forces:R:3:charge:R:1 energy=-1059.9010623479749 free_energy=-1059.9010623479749 dipole="-0.8046178546208338 0.4724017351896043 -0.0817876996965291" stress="0.0 0.0 0.0 0.0 0.0 0.0 0.0 0.0 0.0" pbc="T T T"
H        9.63367400       6.76833019       9.12637224      -0.05210020       0.03469387      -0.05696254      -0.02787789       0.00298245      -0.00595377       0.06268580
C        8.73718985       7.61649102       7.37634424       0.58140501       0.33169193      -1.37549663      -0.00127815       0.01972878      -0.01915513      -0.05585389
C       10.08546531       7.88929566       6.77391357       0.06439229      -0.98390295       1.05944299      -0.00965932       0.01129621       0.00679467       0.58520640
H        7.45443137       6.28169477      10.22264878       0.23043343      -0.04233945       0.10886119      -0.00314167      -0.00592754       0.01187556       0.04698077
O       10.12719954       8.90821010       5.90118794       0.98251759       0.44216061       1.02811816      -0.00045944       0.00210067       0.00296281      -0.49206381
C        6.32850131       7.61024977       7.30936537       1.28520540      -0.83189319      -0.51060160      -0.00053356       0.00355005      -0.01401040      -0.03010421
C        5.03842567       7.87520414       6.61630299      -0.91405282      -0.34948708       1.49567132      -0.00259761       0.00892868      -0.00324390       0.58037387
O        5.19085753       8.41389276       5.39857614      -0.18068795      -0.16493227      -0.69207236      -0.00166108       0.02523543       0.00268059      -0.51300160
O        3.95660324       7.63586380       7.08280282      -0.50127247       1.56313451      -0.22415145       0.01036254      -0.00518889       0.03500544      -0.52274201
O       11.05741018       7.25241844       7.05964831      -1.06370394       0.75109096      -0.30355096       0.00549382       0.00735324       0.01006351      -0.49513785
C        8.69743207       7.01094164       8.63425969       0.05696407      -0.46205571      -0.00132467      -0.00936746       0.01742732      -0.01855389       0.00767268