18
Lattice="15.108652899924854 0.0 0.0 0.0 15.108652899924854 0.0 0.0 0.0 15.108652899924854" Properties=species:S:1:pos:R:3:momenta:R:3:forces:R:3:charge:R:1 energy=-1059.6680065037838 free_energy=-1059.6680065037838 dipole="-0.5091125827649379 0.08055089021327676 -0.1954097071952216" stress="0.0 0.0 0.0 0.0 0.0 0.0 0.0 0.0 0.0" pbc="T T T"
H        5.40016054       8.16611172       5.98440502       0.14854813       0.08578973      -0.03367717       0.15494181      -0.03268227      -0.01333857       0.05153329
H        7.55927610       8.55372943       4.78412729      -0.10346918       0.12753499      -0.28588851       0.00054614      -0.01691078       0.15176779       0.04390613
C        8.76398608       7.41900373       7.76996354       0.56730082       0.52399347      -0.63307786      -0.55481994      -0.22554440       0.21441202      -0.02897028
C       10.05845603       7.24244997       8.48814500      -0.41807655      -0.44035186      -0.21748082       2.73473054       3.38689074      -4.27362209       0.57072855
O       10.05780265       6.54359135       9.55785645      -0.53697580       0.54521251      -0.28150851       0.28045554      -0.80906001       1.40279110      -0.46883708
O       11.06958161       7.83128704       7.96644492       0.94135070      -1.01391700       0.40201265      -2.80423740      -2.29837254       2.38102382      -0.57429138
C        6.34300288       7.42073465       7.76791762      -0.01175631       0.27881128       1.11407000       0.03719338       0.36620260      -0.43273340      -0.02864399
C        5.04609727       7.24342361       8.48369033       0.15973299      -0.49813591       0.47923282       2.55954043      -3.33482767       4.11471429       0.57058520
O        4.03458017       7.83247705       7.96329450       1.64482944      -0.90085706      -1.67798894      -1.52224179       0.55955047      -0.38238603      -0.47378849
O        5.04490330       6.54229316       9.55185860      -0.24247613      -0.12543759       0.63646131      -0.69836794       2.48410231      -3.47899313      -0.56912455
H        9.71515379       8.16189261       5.99054583      -0.03670326      -0.35933824       0.35037483      -0.11987031      -0.03339793       0.02848328       0.06432659
H        7.55327307       6.72620333       9.41969530      -0.25278386      -0.05699838       0.40857603      -0.07091519       0.04308835      -0.10522120       0.07040769
C        8.76217772       7.93946949       6.46476151      -0.95656196       1.06475806       0.01476248      -0.20516962      -0.06343190       0.17675732       0.00806876
C        7.55278023       7.13037296       8.41037951       0.37097489       1.28698280       0.19670750      -0.07216388       0.14371524      -0.22868230       0.00628497
C        7.55738512       8.17465813       5.80352491       0.38347058       0.19658306       0.39841151       0.02420214      -0.12668217       0.31044825      -0.02464967
C        6.35060663       7.94152496       6.46261286      -1.84294075      -0.46971929      -0.96754175       0.26177601      -0.04060959       0.13702916      -0.00584379
H       10.94971351       6.51705994       9.94658211      -0.06184654      -0.37587496      -0.12278424      -0.00593265      -0.00144830      -0.00242150       0.39402392
H        3.23558716       7.66625440       8.49396974       0.24738279       0.13096439       0.21933866       0.00033274      -0.00058214      -0.00002881       0.39428412
18
Lattice="15.108652899924854 0.0 0.0 0.0 15.108652899924854 0.0 0.0 0.0 15.108652899924854" Properties=species:S:1:pos:R:3:momenta:R:3:forces:R:3:charge:R:1 energy=-1059.4143351539035 free_energy=-1059.4143351539035 dipole="-0.2941200793158146 0.09079526064667365 -0.26491526590388326" stress="0.0 0.0 0.0 0.0 0.0 0.0 0.0 0.0 0.0" pbc="T T T"
H        5.36709439       8.21260546       5.90637550       0.16186042      -0.01405924       0.16815669       0.08395195      -0.45806473       0.31137026       0.06285580
H        7.57746177       8.59938721       4.83459894       0.09927820       0.23600794      -0.29801638      -0.17016384       0.18199140      -0.52002491       0.04385834
C        8.75898863       7.44751854       7.77747906      -0.62784651       0.34221122       0.39107731      -0.16607359       0.55902058      -0.39364304      -0.03396874
C       10.09344608       7.28257838       8.36419119      -0.00106681      -0.00922692      -0.76444605      -3.54670760      -2.40048306       3.80014705       0.59119639
O       10.02287299       6.56384538       9.55652937      -0.57902916       0.30847747      -0.19298302      -1.51038270       0.21522327      -1.08892327      -0.54918799
O       11.09721090       7.72391429       8.02929582       1.30270314      -1.36805847       0.83441463       4.27242359       1.90280729      -2.26371720      -0.49138815
C        6.34792834       7.47882472       7.77867085       0.14580147       0.77783622      -0.74719036      -0.03924943      -0.63212035      -0.30894129      -0.03911473
C        5.11880487       7.15282826       8.57431588       1.19127136      -0.46637576       0.03418327       0.36577192       2.81776974      -4.78621690       0.58549772
O        4.09466359       7.77570652       7.88402191       0.91950536      -1.08227324      -0.35229431      -0.09544479      -0.51833810       1.69132327      -0.53626950
O        5.00888835       6.54343623       9.55006374      -1.17422639      -0.67795153       0.51619094      -0.47293231      -1.62252002       2.95917769      -0.48828586
H        9.72968084       8.08301759       6.05847450      -0.14001653       0.28926641      -0.19276868      -0.53167870       0.39843586      -0.32554027       0.05784209
H        7.50396829       6.88918537       9.40112090       0.13202033       0.09327111       0.23374381       0.09381003      -0.65728756       1.77636934       0.07132518
C        8.73027395       7.98655574       6.49621607       0.14888263       0.16487631       0.51293489      -0.03574234      -0.39513588      -0.58319547      -0.00743115
C        7.56209504       7.23747527       8.42641083      -0.45135482       1.27256312      -0.58569431      -0.40104516       0.30583758      -1.45154357       0.00366841
C        7.52668192       8.20905478       5.82822657      -1.17229118       0.10887529       0.71912712      -0.52464267      -0.51970828       0.88916181      -0.02736585
C        6.26842938       7.90974176       6.43628790       0.17758370      -0.12167005       0.10323930       2.20607934       0.87660799       0.35380577       0.00675572
H       10.86690411       6.23552565       9.82752412      -0.15792579      -0.12123665      -0.20562720       1.08209483      -0.03037622       0.27653457       0.37412009
H        3.40397810       7.83520146       8.56032403       0.02485058       0.26746681      -0.17404766      -0.61006852      -0.02365950      -0.33614384       0.37589224
18
Lattice="15.108652899924854 0.0 0.0 0.0 15.108652899924854 0.0 0.0 0.0 15.108652899924854" Properties=species:S:1:pos:R:3:momenta:R:3:forces:R:3:charge:R:1 energy=-1059.049852473343 free_energy=-1059.049852473343 dipole="-0.4465104687826225 0.24051481337536312 -0.4823784533089541" stress="0.0 0.0 0.0 0.0 0.0 0.0 0.0 0.0 0.0" pbc="T T T"
H        5.31596731       8.11674328       5.93241554      -0.02101798      -0.14802743       0.02622878       0.99979860      -0.29311525       0.39150704       0.05803915
H        7.46279303       8.63806612       4.92555006      -0.17936838       0.18231426      -0.31591389       0.23617602       0.93398874      -2.36430924       0.04869095
C        8.74143916       7.49004590       7.77551121       0.36564873       0.90399699      -0.27065944       1.55428099       0.68365952      -0.41772269      -0.02316910
C       10.07665814       7.25714733       8.40255743       1.07508155       0.06112371       1.13793365       2.58237988       1.40660896      -0.50245038       0.56662584
O        9.96329326       6.58204985       9.53786693      -1.36539424       0.08352941      -0.29821001      -1.09764840      -0.16439849      -0.25678122      -0.50115494
O       11.21667850       7.63622005       8.03126561       0.45417268      -2.02814294      -0.10040370      -3.70046827      -1.08488655       0.32770668      -0.54486720
C        6.35884032       7.51404995       7.75476127       0.22220528      -0.50692664       0.42804220      -0.50585516      -1.12341886       0.91629009      -0.02283088
C        5.17019285       7.17038423       8.54308516      -0.64885328      -0.07191472       0.54061729      -2.54958575      -1.33372027       2.37393021       0.57620577
O        4.14204008       7.72489729       7.90007746       0.62218608      -0.77075232       0.48591651      -0.34634590       0.81667620      -1.01039581      -0.52049244
O        4.96762335       6.50778522       9.57940307       0.23868846       0.37867205      -0.92140127       1.54198906       1.81143805      -2.62185850      -0.53211908
H        9.52830328       8.38058998       5.95719267      -0.16776920       0.18563243       0.02076441       0.98153286      -0.22576626      -0.06484730       0.06070261
H        7.56247369       6.93227083       9.36012814      -0.10173037      -0.00745266       0.16285461      -0.26480718      -0.81816383       2.46382402       0.07557396
C        8.69884185       7.99510974       6.50363695      -0.64752948       0.43007454      -0.75895611      -0.79982092       0.89434085      -1.17851376      -0.00108184
C        7.53332931       7.31377768       8.41127061       0.01029813       0.57793462       0.32869530       1.09949798      -0.19882231      -1.07499579       0.00052810
C        7.47618333       8.22094858       5.86079125       0.35843244       0.19140348       0.53891284       1.46073686      -0.41373265       0.75074440      -0.02843203
C        6.29888425       7.92581959       6.42956827      -0.10980866       0.42498799      -0.67462624      -2.24379779       0.16628543       0.62442864       0.00854945
H       10.82473227       6.21954274       9.64642329       0.05428525       0.20699750      -0.11755172       1.43800631      -0.53382752       0.90969110       0.39263413
H        3.31847014       7.94316850       8.33012947      -0.15952702      -0.09345027      -0.21224321      -0.38606920      -0.52314576       0.73375252       0.38659756
18
Lattice="15.108652899924854 0.0 0.0 0.0 15.108652899924854 0.0 0.0 0.0 15.108652899924854" Properties=species:S:1:pos:R:3:momenta:R:3:forces:R:3:charge:R:1 energy=-1059.434706353669 free_energy=-1059.434706353669 dipole="-0.5089744848616228 0.2589079543757019 -0.13321138371779354" stress="0.0 0.0 0.0 0.0 0.0 0.0 0.0 0.0 0.0" pbc="T T T"
H        5.32030865       8.00945461       5.91762057       0.14695706       0.00436762      -0.11606682       0.71385417       0.15086387       0.44141557       0.05195395
H        7.46337495       8.63444163       4.88335906       0.24400415      -0.01955530      -0.24604541      -0.02680965       1.41945268      -3.60105730       0.04910344
C        8.82081330       7.57490209       7.75529240       0.71233642       1.10959498      -0.05003591      -2.26622186       0.03380738       0.84350921      -0.04258682
C       10.12843807       7.29151356       8.44375478      -0.97412983       0.43569304      -0.25295872      -3.28178414      -0.77377235      -0.41452041       0.59152718
O        9.89402554       6.57193145       9.53534414      -1.15128125      -0.42558669       0.23218454      -0.18337705       0.08653403       0.57424542      -0.51056697
O       11.19263284       7.51053310       8.01080407       0.61641227      -1.69976584      -0.91185618       2.71153013       0.86675521      -0.86323521      -0.51919830
C        6.36243460       7.46102863       7.78839733      -0.25670663      -0.51948629       0.02606060       0.46968191       0.47308679      -0.07985596      -0.05058156
C        5.08853849       7.16761704       8.58119544      -0.52160264       0.41321985      -0.90389107       2.66386494       0.94974488      -3.21769840       0.59403671
O        4.12602934       7.72063699       7.90248554      -1.32041836       0.72205267      -0.50547398      -1.81509638       0.66661722      -0.10189041      -0.50111195
O        5.00602024       6.50092011       9.53725495       0.43318303      -1.23360680       0.79151251      -0.42191551      -1.27466934       2.46335514      -0.51663877
H        9.62144668       8.41127742       5.99835022       0.17274139      -0.18957286       0.08112288      -0.05754511      -0.25145134      -0.34730301       0.05191838
H        7.45676969       6.99086501       9.43885694       0.15779781       0.06805984       0.05473122       0.46289844      -0.69256794       2.04366765       0.07103282
C        8.69178938       8.06233154       6.44104788       0.85444320       0.93138475      -0.02625374       1.20789628       0.14334374       1.22072369      -0.00116850
C        7.58517941       7.32001075       8.47155446       1.35306758      -0.11499178       0.64947075       0.45411674       0.79104593      -3.73744680      -0.00346170
C        7.48262487       8.25088416       5.80352449      -0.69732032       0.57196411      -0.97173680      -0.43638433      -1.23748311       3.33541934      -0.02966837
C        6.28942552       7.96549073       6.45063303       0.15784322       0.45020354       1.23385977      -0.05242021      -1.02273939       0.96497442       0.00082990
H       10.73681624       6.39882182       9.95485033      -0.03761756       0.05037161       0.71929163       0.54450898      -0.27644498       0.38433484       0.38127418
H        3.30707397       7.59269185       8.38836647       0.11029045      -0.55434646       0.19608473      -0.68679734      -0.05212327       0.09136223       0.38330638
18
Lattice="15.108652899924854 0.0 0.0 0.0 15.108652899924854 0.0 0.0 0.0 15.108652899924854" Properties=species:S:1:pos:R:3:momenta:R:3:forces:R:3:charge:R:1 energy=-1059.1969607354717 free_energy=-1059.1969607354717 dipole="-0.4072101631646283 0.2223031104703716 -0.2280921282934059" stress="0.0 0.0 0.0 0.0 0.0 0.0 0.0 0.0 0.0" pbc="T T T"
H        5.34756055       8.08388212       6.00002267      -0.18680151       0.11435669       0.28049268       1.07778888      -0.12837994       0.74201215       0.05499001
H        7.49289382       8.52906626       4.80146790      -0.21066255      -0.17414511       0.03065241      -0.33688191       1.07737765      -3.44109951       0.05714634
C        8.79919910       7.67535455       7.76083209      -0.70046455       1.35514967      -0.02301637       0.15751764      -0.32569898      -0.40070661      -0.03029923
C       10.07323465       7.28634254       8.40775342       0.71706940      -0.55881662      -0.60009884       2.66026431      -0.86245867       0.61178172       0.57556370
O        9.84040097       6.54765388       9.55447547      -0.99086134       0.14859881       0.06052131      -0.63717563       0.74211753      -0.70091897      -0.53517580
O       11.22030773       7.43098385       7.99528350      -0.81873762      -1.11342823       0.34014974      -2.25576788       0.23677656       0.52107351      -0.51627368
C        6.38283542       7.42353462       7.80025607       1.08409853      -0.07906820       0.60059104       1.36488671       0.89861024       1.24001450      -0.02678957
C        5.12277741       7.17804196       8.52742914       0.42121112      -0.44851715      -0.01157176      -1.11911439      -1.39540279       1.41544613       0.56325256
O        4.00522899       7.73286154       7.91595440      -1.87968822      -0.32380443       1.04124742       1.72181287      -1.06311164       0.85803114      -0.52053862
O        5.01410679       6.47558340       9.54447319      -0.03887019       0.50712272      -1.41399247       0.20459821       1.82595902      -2.45089959      -0.52698876
H        9.70633447       8.22266057       5.89833413      -0.24062694      -0.12570103      -0.10111225      -0.23474706       0.30038669       0.02362766       0.06263952
H        7.77789982       7.00730589       9.45425995       0.19214995      -0.02160735      -0.22296067      -0.39567119      -0.60369492       1.36784303       0.08223084
C        8.76077018       8.14705834       6.43236880       0.53674881       0.89384363      -0.55028473      -1.67387940      -0.60081438      -0.34963549       0.00250614
C        7.65773528       7.31273016       8.46557012      -0.10429499      -0.25704612      -0.51774223      -1.87985334       0.88716346      -2.52544647       0.01120091
C        7.48201902       8.28619791       5.76983205       1.09024940       0.06707060       0.65990272       1.95496923      -1.42305652       5.40045593      -0.03044850
C        6.34102392       7.97929121       6.53074742       1.47779878       0.02176770       0.35191491      -0.66563732       0.12894487      -1.96812065       0.00825868
H       10.48161883       6.50420467      10.26990644      -0.04764931       0.19654032       0.28300882       0.65097931       0.10740928      -0.48375203       0.38406207
H        3.28838250       7.22728490       8.31498055      -0.30066876      -0.20231592      -0.20770173      -0.59408903       0.19787252       0.14029355       0.38466341
18
Lattice="15.108652899924854 0.0 0.0 0.0 15.108652899924854 0.0 0.0 0.0 15.108652899924854" Properties=species:S:1:pos:R:3:momenta:R:3:forces:R:3:charge:R:1 energy=-1058.8478544550617 free_energy=-1058.8478544550617 dipole="-0.37531278108158567 0.09493737462946988 -0.25995994292772345" stress="0.0 0.0 0.0 0.0 0.0 0.0 0.0 0.0 0.0" pbc="T T T"
H        5.41052065       8.20665226       6.25834602      -0.10866495       0.16306385      -0.05917154       0.62424351      -0.07958834      -0.76807217       0.04961615
H        7.37096480       8.47534784       4.86879650       0.09070884       0.23141120       0.15171878      -0.15108429       1.13134852      -3.86897454       0.05335557
C        8.79680981       7.73527472       7.74161736       0.69045654       0.18902651      -0.19252595       0.97661662      -1.90318344       1.02858241      -0.04644226
C       10.08268458       7.22012047       8.41666543      -1.25346777      -0.61494685       0.63465177      -1.00408927       1.11803391      -0.79727035       0.58062392
O        9.77412758       6.59285158       9.56532557      -1.10774029       0.81187068      -0.01307625       0.99166480       0.37056590       0.34339658      -0.51441514
O       11.18452622       7.38919453       7.97241035       0.04177614      -0.37354032      -0.94128627      -0.03588258      -0.18107087       0.41759635      -0.51531845
C        6.43446596       7.45152251       7.85397333      -0.70405775       0.65975553       0.07758973      -1.74403487       1.46187919      -1.44244114      -0.03126653
C        5.10158289       7.16607062       8.49074343      -0.42207978       0.44482860      -1.30676313      -0.56968484       0.31165089      -0.40921520       0.58285716
O        3.92840445       7.66729966       7.97865601      -0.38021401      -1.20017330       0.70882544       1.47321072       0.33001983      -1.22155812      -0.53020990
O        5.02785837       6.48738256       9.45646690       0.59176261      -0.70155705      -0.51831950       0.23065948      -1.41001733       1.72056959      -0.50955883
H        9.61837308       8.23627291       5.76345404      -0.16618620       0.24740762       0.16528615       1.06419274       0.32826137       0.16311103       0.06003150
H        7.71084085       6.85369848       9.37510808      -0.43355976      -0.12814659      -0.12848208       0.11699374      -0.57931794       1.49326252       0.07782111
C        8.77873767       8.18498627       6.41402508       0.89910549      -0.03563438       0.25624550       1.04403888      -0.93851538       1.11707438       0.00950506
C        7.64715659       7.29773461       8.43703881       0.77560743      -0.20828456       0.04039730       1.06544012       0.81402124      -0.99737113       0.00840814
C        7.58086072       8.30270833       5.82670849       0.18482651       0.40381618       0.27551434      -2.40920783      -0.79432861       2.85230362      -0.02808346
C        6.44517838       7.99740465       6.57166461       1.19656089       0.15027706       0.97299701      -1.82976880       0.40347534       0.21047396      -0.01357540
H       10.50397447       6.67406297      10.20627514       0.25165649       0.12729735      -0.03528362       0.03792567      -0.38308451      -0.34347476       0.38376773
H        3.18262046       7.06998396       8.11877860      -0.14649043      -0.16647153      -0.08831769       0.11876620      -0.00014977       0.50200698       0.38288360
18
Lattice="15.108652899924854 0.0 0.0 0.0 15.108652899924854 0.0 0.0 0.0 15.108652899924854" Properties=species:S:1:pos:R:3:momenta:R:3:forces:R:3:charge:R:1 energy=-1059.0256582372033 free_energy=-1059.0256582372033 dipole="-0.4200278639524908 0.1794337393514225 -0.3623642559966296" stress="0.0 0.0 0.0 0.0 0.0 0.0 0.0 0.0 0.0" pbc="T T T"
H        5.58045085       8.33180579       6.00454750      -0.25159155       0.25306546      -0.51264662      -0.62217832      -0.45939414       0.71506797       0.04695601
H        7.55396876       8.83201817       4.92979366       0.31785166       0.23852632       0.37095749      -0.55942918       0.61808969      -1.82018623       0.05251975
C        8.85035434       7.67534874       7.76672702       0.13694949      -1.15168783       0.84424014      -2.35401803      -0.55146932      -1.18552871      -0.03805505
C       10.03178629       7.20732448       8.39489149       0.49589343       0.18336911      -1.23661825       0.87538382       0.28512704       0.74386964       0.57975514
O        9.75456420       6.64697755       9.59244087       0.23774487       0.67505963       0.67214823       1.72229406       0.19003296       0.09260130      -0.51769812
O       11.13591057       7.35308399       7.95057647      -1.37045403      -0.30494989       0.38245141       0.78314338      -0.27489102       0.21943158      -0.53356036
C        6.38627705       7.53751610       7.86205896       0.02954286       1.07281076       0.31767887       1.45839236      -0.23482783       0.33972914      -0.02850325
C        5.08068175       7.15035135       8.44977140      -0.25976610      -1.10384027       0.75985358       0.03572666      -0.51053306       2.07158576       0.57883863
O        3.91482510       7.62501376       7.96629178       0.03160609      -0.44972600      -0.84883357       0.01072900      -0.87525883      -0.51712306      -0.50629767
O        5.08326274       6.43919836       9.43675719       1.16240799      -0.40781066      -0.57932647      -0.20498722      -0.05084291      -0.48721385      -0.53284841
H        9.78567781       8.56162580       6.03605029      -0.20360785       0.17099130       0.51032996      -0.75753346      -0.54679766      -0.03112344       0.06099663
H        7.64326952       6.78157767       9.34038063       0.22700847       0.20450060      -0.11729245       0.30328316      -0.59550540       1.51346588       0.08434738
C        8.83153910       8.17099869       6.44341258       0.38970050      -0.22576651       0.29400182      -1.00651544       0.65288423       0.27357224       0.00407823
C        7.68741903       7.28885444       8.43304652      -0.60575661      -0.07487486      -0.12236881      -2.73201510       0.86567528      -1.80782712       0.01447244
C        7.54510417       8.33586235       5.83511582       0.13184750       0.53286673      -0.28369172       3.66123220      -0.61845446       3.00962118      -0.03208684
C        6.44564554       8.03004880       6.60601522      -0.69239279       0.67764739      -0.71395568      -1.52034996       1.62496170      -3.33525498       0.00112901
H       10.63341973       6.62268486      10.01587555       0.33854752      -0.23986185      -0.09799908      -0.21769746      -0.45740981       0.26860245       0.38131655
H        3.16226570       7.02590074       8.25629777      -0.11553144      -0.05031941       0.36107115       1.12453954       0.93861352      -0.06328973       0.38463992
18
Lattice="15.108652899924854 0.0 0.0 0.0 15.108652899924854 0.0 0.0 0.0 15.108652899924854" Properties=species:S:1:pos:R:3:momenta:R:3:forces:R:3:charge:R:1 energy=-1059.5464428456348 free_energy=-1059.5464428456348 dipole="-0.5328274535786551 0.22730811899404102 -0.14245804379174898" stress="0.0 0.0 0.0 0.0 0.0 0.0 0.0 0.0 0.0" pbc="T T T"
H        5.36621208       8.25374325       6.02934747      -0.57702769      -0.17529675      -0.11107602       0.49423656       0.27071358      -0.19398742       0.06014682
H        7.59833427       8.96045805       4.95564274      -0.11153278      -0.26547424       0.22692914       0.14942770      -0.08092202      -0.54772084       0.04415133
C        8.77077945       7.61238611       7.76436871      -1.42455970      -0.62726310      -0.45869140       0.18765612      -1.02450190       1.08874684      -0.03002089
C       10.02510230       7.20689414       8.39363687      -0.33465230      -0.00427137       0.89059376       1.58637967      -0.03101811       1.15003982       0.57501040
O        9.84110504       6.67844355       9.62834353       1.84256560       0.26786354       0.07221631       0.28218533      -0.31823412      -0.11159705      -0.51566886
O       11.14868443       7.32837571       7.95280776       1.28815379      -0.38930021      -0.35675456      -0.82396531      -0.03879712      -0.19719511      -0.53261300
C        6.37151634       7.60818643       7.83535571      -0.89509337       0.63494743      -1.19232763      -1.43257077       0.27601409      -2.41904550      -0.03575584
C        5.08844292       7.13241905       8.49872697       0.64864943       0.26515120      -0.20122699       1.04010821       0.10517759      -0.48930278       0.57619404
O        3.94270746       7.57274563       7.92718282       1.05172355      -0.84460769      -0.02255193      -0.33423223      -0.85928075       2.12862049      -0.50318574
O        5.14609019       6.36116332       9.42626359       0.25307677      -1.72501482       0.53252844      -0.65804337       0.52663937      -0.27179588      -0.52295136
H        9.75299349       8.64645832       6.19270317      -0.28967735      -0.30023439      -0.09631403      -0.90597391      -1.02366805      -0.09249207       0.05836446
H        7.69802826       6.89448277       9.35957682      -0.34942743       0.14244800      -0.18169303      -0.45776478      -0.65532007       1.30373637       0.07874199
C        8.79472920       8.15372121       6.52473675      -0.42402357       0.42038918       1.44608962       1.56171957       1.99600035      -1.21292438       0.00673532
C        7.58007609       7.29974299       8.40131768      -1.04139365       0.06356291      -0.19308682       0.19406427       0.42931005      -0.44375235       0.00776677
C        7.62400482       8.39545678       5.86794377       0.73605650       1.44096444       0.34453288      -3.05389953       0.55719554       0.29676612      -0.02409591
C        6.35204739       8.14343007       6.47920019      -0.41169203       1.21694678      -0.93422901       1.55332291      -0.97152235       1.67721960      -0.00569249
H       10.67929736       6.30163655       9.97188364       0.16602032      -0.40263840       0.01271857      -0.30524201       0.36430705      -0.25888849       0.37980423
H        3.22954534       7.27291357       8.58967540      -0.12716610       0.28182748       0.22234271       0.92259156       0.47790687      -1.40642736       0.38306876
18
Lattice="15.108652899924854 0.0 0.0 0.0 15.108652899924854 0.0 0.0 0.0 15.108652899924854" Properties=species:S:1:pos:R:3:momenta:R:3:forces:R:3:charge:R:1 energy=-1059.4123634853959 free_energy=-1059.4123634853959 dipole="-0.47037456687679385 0.19621854675733663 -0.06882804171723225" stress="0.0 0.0 0.0 0.0 0.0 0.0 0.0 0.0 0.0" pbc="T T T"
H        5.41194526       8.27545645       5.94239372      -0.19690917       0.23952377      -0.52724367      -0.38305861       0.40020107      -0.56994108       0.05341882
H        7.64482199       8.78940428       4.85085803       0.11061514      -0.26296490       0.30629383      -0.26530102       0.25295359       0.88472957       0.03815576
C        8.72408912       7.51571631       7.78859771       0.39721366      -1.14999249       0.64092507       1.18694447       1.29806994       0.45530356      -0.03839698
C       10.09468935       7.22410564       8.46350434       1.39516086       0.63019115       0.07178704      -2.01462061      -0.55226107      -1.08129294       0.59028781
O        9.94358051       6.67866627       9.64251593       1.09888418      -0.50918966       0.92216633       0.07000962      -1.02577968       1.53937073      -0.49913410
O       11.14780812       7.32264160       7.92128959      -0.74093373       0.26654456      -0.61946707       0.91440471       0.46271911      -0.71105231      -0.52484461
C        6.29233126       7.63533173       7.69236854      -0.68354582      -0.26827134      -1.00344440       1.00328810      -1.78971936       3.50186664      -0.03667382
C        5.13827923       7.11176539       8.51732536       0.28936231      -0.60666749       0.42884008      -0.60019409       0.03445426      -1.81023940       0.58654818
O        4.00825072       7.53002515       7.96802159       0.71610762       0.04316990       1.06734611      -2.30298107       0.76674219       0.75738572      -0.50685865
O        5.15204412       6.31797537       9.40997687       0.09258014       0.06064546      -0.50662368       0.55361830       0.10021677       0.66742007      -0.52110898
H        9.74047736       8.25509297       5.97351099      -0.14113494      -0.40706754      -0.10218364      -1.23956539       0.27628975       0.99175736       0.05478797