18
Lattice="15.108652899924854 0.0 0.0 0.0 15.108652899924854 0.0 0.0 0.0 15.108652899924854" Properties=species:S:1:pos:R:3:momenta:R:3:forces:R:3:charge:R:1 energy=-1059.6680065037838 free_energy=-1059.6680065037838 dipole="-0.5091125827649379 0.08055089021327676 -0.1954097071952216" stress="0.0 0.0 0.0 0.0 0.0 0.0 0.0 0.0 0.0" pbc="T T T"
H        5.40016054       8.16611172       5.98440502      -0.12042814       0.16110714       0.33113328       0.15494181      -0.03268227      -0.01333857       0.05153329
H        7.55927610       8.55372943       4.78412729       0.24331304      -0.01748565      -0.07903555       0.00054614      -0.01691078       0.15176779       0.04390613
C        8.76398608       7.41900373       7.76996354      -0.20103433      -0.48811513       0.73532004      -0.55481994      -0.22554440       0.21441202      -0.02897028
C       10.05845603       7.24244997       8.48814500       0.30680776       1.01394745       0.03769796       2.73473054       3.38689074      -4.27362209       0.57072855
O       10.05780265       6.54359135       9.55785645       0.63242479       0.45776700      -0.57293648       0.28045554      -0.80906001       1.40279110      -0.46883708
O       11.06958161       7.83128704       7.96644492       0.42655323      -0.62354751      -0.41120591      -2.80423740      -2.29837254       2.38102382      -0.57429138
C        6.34300288       7.42073465       7.76791762       0.06849208      -0.08543067       0.11470919       0.03719338       0.36620260      -0.43273340      -0.02864399
C        5.04609727       7.24342361       8.48369033       0.37240578      -0.60930981       0.20272323       2.55954043      -3.33482767       4.11471429       0.57058520
O        4.03458017       7.83247705       7.96329450      -0.57486178       0.18460391      -0.16800612      -1.52224179       0.55955047      -0.38238603      -0.47378849
O        5.04490330       6.54229316       9.55185860      -1.52130462      -0.01119536       0.70870564      -0.69836794       2.48410231      -3.47899313      -0.56912455
H        9.71515379       8.16189261       5.99054583      -0.24389954       0.02871561       0.15522938      -0.11987031      -0.03339793       0.02848328       0.06432659
H        7.55327307       6.72620333       9.41969530       0.28296842      -0.13464891      -0.04692860      -0.07091519       0.04308835      -0.10522120       0.07040769
C        8.76217772       7.93946949       6.46476151      -0.50024580      -0.51967236       0.53525744      -0.20516962      -0.06343190       0.17675732       0.00806876
C        7.55278023       7.13037296       8.41037951      -0.05335893       0.33149801      -0.76207989      -0.07216388       0.14371524      -0.22868230       0.00628497
C        7.55738512       8.17465813       5.80352491      -0.07652311       0.45431145       0.02969008       0.02420214      -0.12668217       0.31044825      -0.02464967
C        6.35060663       7.94152496       6.46261286       1.12061872      -0.02036937      -0.26971853       0.26177601      -0.04060959       0.13702916      -0.00584379
H       10.94971351       6.51705994       9.94658211      -0.00865494      -0.11573459      -0.09799552      -0.00593265      -0.00144830      -0.00242150       0.39402392
H        3.23558716       7.66625440       8.49396974      -0.15327264      -0.00644121      -0.44255965       0.00033274      -0.00058214      -0.00002881       0.39428412
18
Lattice="15.108652899924854 0.0 0.0 0.0 15.108652899924854 0.0 0.0 0.0 15.108652899924854" Properties=species:S:1:pos:R:3:momenta:R:3:forces:R:3:charge:R:1 energy=-1059.3811377740185 free_energy=-1059.3811377740185 dipole="-0.1667933632515902 0.007860458741447715 -0.2770221031143522" stress="0.0 0.0 0.0 0.0 0.0 0.0 0.0 0.0 0.0" pbc="T T T"
H        5.42876480       8.27209516       6.09520401      -0.06824998       0.13614315      -0.26895548      -0.06333557      -0.12783398      -0.46804305       0.05655977
H        7.64869871       8.56234164       4.74562666      -0.11449319       0.02028804      -0.07689996      -0.25047898      -0.08562265       0.69370477       0.04989588
C        8.75460793       7.42216182       7.79891546      -0.34799635       0.46141372      -0.22256165       0.08145941       0.65725907      -0.52124254      -0.03670763
C       10.10388090       7.36358942       8.41992525      -0.51267710       0.39843391      -0.37648293      -3.46300752      -3.49720443       2.57093339       0.59027279
O       10.09403791       6.54976151       9.55338697       0.82933907       0.15793762       0.02978701      -0.38268191       0.96471182      -0.90466102      -0.53782594
O       11.08203152       7.77733278       7.97440617       1.29030686      -0.30455199       0.09270720       3.56356656       1.90659056      -1.54030883      -0.49088192
C        6.35404488       7.41791783       7.75832862       0.24281923      -0.29679484       0.10720295      -0.36509296      -0.28922739       0.32110167      -0.03249213
C        5.11074941       7.14771993       8.56297118       0.22161061      -0.35995939      -0.01510019      -1.77159685       3.48513305      -4.39292233       0.58337672
O        3.99172731       7.84183717       7.95454082      -0.05953128       0.03221357      -0.14993523       2.43459060      -0.84362678       0.08859246      -0.56349126
O        4.95009075       6.56284853       9.54268385      -1.63721680      -0.06481050       0.38156937       0.09057086      -2.04415377       2.90129051      -0.47078079
H        9.70293369       8.18933993       6.05310150      -0.14626847      -0.09924582       0.18046209      -1.04719930      -0.45940343       0.39748787       0.04846586
H        7.63275837       6.63024553       9.31460430      -0.17454874      -0.06778385       0.03727798      -0.54569272      -0.11422917       0.89954192       0.06760943
C        8.70462372       7.90320003       6.51077832      -0.04040253      -0.06666946       0.06753920       2.81676299       1.39577870      -1.78887552       0.00130602
C        7.54424207       7.13919051       8.38160842       0.21425585      -0.24150879       0.37709090       0.77051399      -0.86994270       1.04177017       0.00595809
C        7.57828921       8.20877214       5.78528112       0.51589686       0.21814226      -0.26736318      -0.72603391      -0.67942793       0.44090324      -0.02167175
C        6.39063623       7.94419226       6.46874080      -0.16402929       0.26151789       0.21793582      -0.96558282       0.80151709      -0.32087090       0.00568820
H       10.99104194       6.46826553       9.89685967      -0.02505253       0.01586633      -0.14898645       0.23185358       0.03543763       0.03825277       0.37473012
H        3.15720541       7.56275958       8.32047719      -0.02376222      -0.20063186       0.03471254      -0.40861545      -0.23575569       0.54334541       0.36998855
18
Lattice="15.108652899924854 0.0 0.0 0.0 15.108652899924854 0.0 0.0 0.0 15.108652899924854" Properties=species:S:1:pos:R:3:momenta:R:3:forces:R:3:charge:R:1 energy=-1059.6771848374565 free_energy=-1059.6771848374565 dipole="-0.42070214020288876 -0.012046196830308267 -0.3598184340694119" stress="0.0 0.0 0.0 0.0 0.0 0.0 0.0 0.0 0.0" pbc="T T T"
H        5.46344017       8.24330440       5.93279825      -0.15735674      -0.07144324      -0.09978352      -0.13928641      -0.07967952       0.24923237       0.05584725
H        7.51576975       8.53764273       4.76312500      -0.01871783       0.02077076       0.04058032       0.42262670      -0.00326043       0.44984238       0.04664350
C        8.72657656       7.48002464       7.81060403      -0.17751582       0.60891637       0.45152440       0.86314250      -0.47785097       0.33724871      -0.02692338
C       10.07129767       7.32225176       8.44942841       0.97846560      -0.54648143       0.45729317       2.88642542       1.03595123      -1.73193648       0.56910689
O       10.11831433       6.58543725       9.53227750      -0.03454822       0.68122445      -0.31099583      -1.41314432      -0.36749071       0.45083303      -0.49150449
O       11.14579392       7.76661727       7.97126002      -0.16432607      -0.46524183       0.31803881      -3.00859329      -0.86824775       0.89848408      -0.55755720
C        6.34800826       7.39690016       7.76357907      -0.27097723      -0.16312149      -0.09093048      -0.27573550       0.29364560      -0.37736553      -0.03319871
C        5.04403440       7.17815965       8.49085070      -1.60166247       0.34722344      -0.30398965       0.74368676      -1.21181400       2.49262655       0.56771450
O        4.03444663       7.80753896       7.93233223       1.06311510      -0.88011259      -0.44083356      -0.77636050      -0.30280631      -0.10098202      -0.49132596
O        4.88486513       6.55434662       9.56459785      -0.38937027       0.33349639      -0.97703410       0.82093314       1.37489950      -2.90768823      -0.55101881
H        9.81610505       8.15215600       6.10995285      -0.12156621      -0.11186298       0.03269857      -1.48541191      -0.28383588       0.07165210       0.06641728
H        7.38233754       6.71396524       9.42558636      -0.06498607       0.19530492       0.15225256       0.63345684      -0.24725152       0.47603233       0.07684474
C        8.76765941       7.92313937       6.48026606       1.30692648       0.58037499      -0.79342502       1.06774273       0.75219873      -0.02032834       0.00311205
C        7.54787161       7.09698786       8.43990568      -0.24670002      -0.45840140       0.64407801      -1.01483423       0.88064317      -1.05311462       0.00567979
C        7.59442240       8.20190393       5.80382423      -0.18337212      -0.57930324       0.79603811      -1.00646709      -0.34419304       0.23970602      -0.02056508
C        6.36689663       7.98768372       6.47254771       0.20650462       0.59834000       0.02510587       0.89388127      -0.53516354       0.37762862      -0.00141120
H       11.02809713       6.43094258       9.76041468      -0.07482857      -0.13049660      -0.16180840       0.97880077      -0.04896625       0.34618151       0.39085321
H        3.26789612       7.48750304       8.44823928      -0.04908415       0.04081349       0.26119074      -0.19086287       0.43322171      -0.19805248       0.39128561
18
Lattice="15.108652899924854 0.0 0.0 0.0 15.108652899924854 0.0 0.0 0.0 15.108652899924854" Properties=species:S:1:pos:R:3:momenta:R:3:forces:R:3:charge:R:1 energy=-1059.6731655244498 free_energy=-1059.6731655244498 dipole="-0.31991763051895517 0.08250179017173588 -0.24484301636371641" stress="0.0 0.0 0.0 0.0 0.0 0.0 0.0 0.0 0.0" pbc="T T T"
H        5.44381142       8.14268354       5.98832485      -0.13787899       0.00622744      -0.05960506      -0.14733027       0.37073828      -0.20340969       0.05438532
H        7.60341654       8.63128374       4.86281458       0.17414225       0.16186442      -0.00330692      -0.14757307      -0.39557072       0.39468203       0.03751212
C        8.75512506       7.48131139       7.83304398       0.72932779      -0.20997968      -0.23610087      -0.15289445      -0.12555446      -0.94280889      -0.04825300
C       10.13229547       7.31655737       8.43559157      -0.78238360      -0.18491716      -0.13718170      -3.39208493      -0.73026621       0.64962330       0.59299394
O       10.10052443       6.58972002       9.53272072      -0.35072492      -0.43735073       0.43552137      -1.45840749      -0.53222740       0.59522888      -0.51192050
O       11.11694478       7.75278382       7.98425972       0.70370676       0.36311035      -0.36985093       2.69105414       1.21771285      -1.45530841      -0.52247255
C        6.31159896       7.39165118       7.75448590      -0.36954924      -0.00675697       0.09459804       1.00336075      -0.14404652       1.51961775      -0.03645860
C        5.03297374       7.18268675       8.51038094       1.15934822       0.22532280      -0.45284469       0.80848674       0.63397580      -2.13502829       0.59234626
O        4.03907413       7.77209597       7.88523853      -0.90116345       0.17249669      -1.32271511      -1.56108315       0.94107302      -0.44143800      -0.50783319
O        4.87946572       6.56921823       9.49953536       0.17548881      -0.85576015       0.33364636       0.13854730      -1.31434670       2.34906619      -0.52336732
H        9.77669666       8.12030733       5.89694460      -0.23274332      -0.00823876      -0.11654599      -1.12341792      -0.20307677       1.08421253       0.06000534
H        7.53455224       6.82586364       9.49609737       0.26634206       0.04426096      -0.10291679      -0.20571116      -0.25585459      -0.11006525       0.06784517
C        8.82154407       7.94976644       6.47807829       0.10224217       0.09452231       0.54060714      -0.64477857      -0.39377127       0.74058424       0.00056532
C        7.50577330       7.12024101       8.45461634      -0.57826573       1.00255718      -0.17701631       1.69633421       1.30260566      -1.28496744       0.00325802
C        7.58952044       8.16647150       5.86398674       0.42776894      -0.23475249       0.54456657       0.45842288       0.94002062      -0.78633687      -0.02338084
C        6.37340127       8.00286256       6.51216955      -0.05344563      -0.46885212       0.91456436       0.11779391      -0.87567484      -0.34638581      -0.00118490
H       10.97683512       6.34746168       9.76522500      -0.08366947      -0.00941217       0.21256693       1.51671137      -0.28604943       0.62202149       0.38421399
H        3.21574814       7.73340786       8.41982658      -0.24854265       0.34565808      -0.09798639       0.40256971      -0.14968731      -0.24928777       0.38174541
18
Lattice="15.108652899924854 0.0 0.0 0.0 15.108652899924854 0.0 0.0 0.0 15.108652899924854" Properties=species:S:1:pos:R:3:momenta:R:3:forces:R:3:charge:R:1 energy=-1059.6017583242888 free_energy=-1059.6017583242888 dipole="-0.36441637885758926 0.21991264720613474 -0.20088309344947827" stress="0.0 0.0 0.0 0.0 0.0 0.0 0.0 0.0 0.0" pbc="T T T"
H        5.46566410       8.20510535       6.01431395      -0.15856925       0.19096266      -0.08892085      -0.57757890       0.08082737      -0.32585898       0.06119829
H        7.62986985       8.60902271       4.86657513       0.02297742      -0.07261939      -0.15411177      -0.15256778      -0.44084823       0.78232000       0.04324304
C        8.77326756       7.47290741       7.80425696      -0.04379089      -0.14288360       0.21174101      -0.41903871      -0.58703258       1.90351544      -0.02013435
C       10.08044701       7.29996705       8.41889852       0.75218772      -0.26663592      -0.20998632       3.78555283       0.14936433       0.60135996       0.57005654
O       10.07267677       6.54723544       9.56444414      -0.94264478      -0.68032175       0.20907890      -1.38910670       0.77324904      -1.39534984      -0.51647118
O       11.14640128       7.76419290       7.95425975      -0.47448845      -0.49818173      -0.09555161      -3.02509271      -1.32576064       1.30524801      -0.53577935
C        6.33051467       7.41147050       7.81231356       0.75846215       0.37580214       0.97417527       0.88198715       0.85362042      -1.19941232      -0.02330981
C        5.06711937       7.18209488       8.47902156      -0.82542230      -0.45624637       0.28819674      -2.49377788      -0.62308787       1.45909659       0.57373714
O        3.98849511       7.79665900       7.81411716      -0.06324864       0.41689901      -0.92251876       1.03253607      -0.46601863       1.28286362      -0.53264737
O        4.92319467       6.52699473       9.50464530       0.78755574       0.04472552      -1.01057728       0.05912894       1.35711327      -1.74604481      -0.51333272
H        9.72793329       8.14695782       5.98118039       0.02787890       0.05274871       0.32446923      -1.10277501      -0.29739719       0.92544291       0.05908141
H        7.54978341       6.74288691       9.41603236      -0.14941553      -0.07244808      -0.17377736       0.06668922       0.29218334      -0.05295732       0.06906052
C        8.76161069       7.93981306       6.54772780      -0.64864556      -0.02670187       0.21047620       2.33946422       1.09250631      -3.03182930       0.01333408
C        7.55478189       7.22142317       8.43246815       1.26165137       1.01795710       0.02246443       0.06378013      -1.18501611       1.20084538       0.00988406
C        7.59901252       8.17124434       5.89040755      -0.75261612       0.17252137       0.35423547      -1.88403951       0.81133419      -1.25424096      -0.02526853
C        6.36788019       7.96250648       6.52499018       0.44239653      -0.41873747      -0.31129588       0.91328815      -0.05058465      -0.28423633       0.00312896
H       10.91584429       6.40111587       9.97070174       0.09514913       0.31616749       0.18380728       1.06208173       0.11031340       0.10184268       0.38524050
H        3.18038495       7.92235463       8.36820075      -0.08941746       0.04699217       0.18809529       0.83946877      -0.54476576      -0.27260476       0.37897878
18
Lattice="15.108652899924854 0.0 0.0 0.0 15.108652899924854 0.0 0.0 0.0 15.108652899924854" Properties=species:S:1:pos:R:3:momenta:R:3:forces:R:3:charge:R:1 energy=-1059.5021093420746 free_energy=-1059.5021093420746 dipole="-0.39150434945292684 0.3608374753523184 0.018730476909689354" stress="0.0 0.0 0.0 0.0 0.0 0.0 0.0 0.0 0.0" pbc="T T T"
H        5.47846874       8.23522758       6.04899095      -0.20018204      -0.03763022       0.02670738      -1.49448607       0.08698140      -0.69141374       0.05594472
H        7.52307460       8.54875018       4.81691634      -0.12337469       0.10470518      -0.14883002       0.12210663      -0.14177996       0.73634667       0.03845890
C        8.81327321       7.46634098       7.83944443       0.72550061       0.17066338       0.12388829      -1.38786906       0.12312342      -0.81142590      -0.04115562
C       10.14313489       7.25225122       8.45279937      -0.79581368      -1.14642374       0.75981368      -2.79893922      -0.11068281      -0.57097921       0.59044487
O       10.04543556       6.53331571       9.55842630      -0.26734055       0.08325538      -0.27329000       0.77029648       0.31861616       0.51255585      -0.50376645
O       11.10313815       7.72306867       7.95237516       0.38869923      -0.61753849      -0.22746451       2.33244546       0.42367484       0.04555711      -0.52281730
C        6.38274635       7.46864387       7.81246810       0.09834404       0.76486851      -0.42892734      -1.00567987      -0.41801576       0.58737604      -0.04399248
C        4.99090109       7.17972402       8.46463657       0.07565084       0.76149610      -0.96722128       3.10223117       0.49852508      -0.61884959       0.58236979
O        4.01932702       7.80320828       7.80492645       0.88612493      -0.06326509       0.38959730      -1.53135743      -0.03138369       2.03471454      -0.49752557
O        4.93122458       6.53010277       9.46795422      -0.27480479      -0.26355452      -0.06069389      -0.96598831       0.08515353       0.14825105      -0.51679160
H        9.77582804       8.25631089       6.17747923       0.04436398       0.17732694      -0.15957176      -1.36937564      -0.41354760      -0.41085857       0.05762247
H        7.54160778       6.79396059       9.48567065       0.21002816       0.16717060       0.14164697       0.17186523       0.43210758      -0.56746872       0.05964193
C        8.74595939       7.94951055       6.52626974      -0.06880916       0.21055189      -0.13199535       1.40925326       0.78740308      -0.18758947      -0.00650994
C        7.60211032       7.24397085       8.47332225      -0.47168008      -0.49977847       0.95441496      -1.20157690      -1.08838992       0.91780505       0.00572294
C        7.53510294       8.18655898       5.86399150      -0.05363943       0.23488365      -0.46309414       1.95881989       0.22167424      -0.93093680      -0.02138943
C        6.36422895       7.93886110       6.51129064      -0.31111708      -0.21991249       0.18408351       0.57620321       0.03361108       0.70238246      -0.00531276
H       10.86362816       6.73636085      10.02553055       0.14335832       0.21583346       0.25774362       0.38013043      -0.52228810       0.49393877       0.38500329
H        3.25696658       7.88166984       8.47230436      -0.00530860      -0.04265208       0.02319260       0.93192073      -0.28478256      -1.38940554       0.38405225
18
Lattice="15.108652899924854 0.0 0.0 0.0 15.108652899924854 0.0 0.0 0.0 15.108652899924854" Properties=species:S:1:pos:R:3:momenta:R:3:forces:R:3:charge:R:1 energy=-1059.8356277187343 free_energy=-1059.8356277187343 dipole="-0.3820924596062084 0.3011813108344383 -0.1395417073254875" stress="0.0 0.0 0.0 0.0 0.0 0.0 0.0 0.0 0.0" pbc="T T T"
H        5.37477211       8.05921853       6.08848263       0.04202344      -0.15846301      -0.08531824      -0.69722965       0.30868779      -0.83152318       0.06569550
H        7.52335767       8.60337228       4.80120329       0.09041491       0.14893018      -0.07858630       0.22326142      -0.34770497       0.71302205       0.04408617
C        8.77223155       7.47615113       7.82490523      -1.35624467       0.10060374      -0.65233990      -0.35304741      -0.14383503      -0.12440664      -0.03130665
C       10.10018579       7.24180732       8.43357210       0.48315039       0.78554222      -0.75160969       0.85490956       0.16134043       0.20615338       0.57977321
O       10.04522039       6.53401272       9.58028060      -0.12762261      -0.39936866       0.72304156      -0.02225817       0.43629706       0.21821277      -0.51403445
O       11.14158471       7.66007490       7.97579026       0.28560255      -1.42584611       0.97574221      -0.62891620      -0.21181291       0.32588049      -0.52801696
C        6.37228912       7.49671817       7.82888740      -0.05919167      -0.02463264       0.58263829       1.01153664      -0.35542982      -0.43415994      -0.03420368
C        5.08231534       7.20611693       8.43639571       1.32329508      -0.10424398       0.65291857      -1.08049464       0.03084669       1.15453959       0.57885824
O        4.03672296       7.79664450       7.83453294      -0.11118567      -0.19521255       0.51462458      -1.35413685       0.02616989       0.65815470      -0.51121678
O        4.91038114       6.55470459       9.43686902      -0.25665232       0.86647707      -1.13184229       0.26392692      -0.17222225       0.11238328      -0.53575602
H        9.66088442       8.25425285       5.92189327       0.13169305      -0.08484840      -0.27917148      -0.54515273      -0.46980776       1.06247419       0.05872633
H        7.62337161       6.92131366       9.58477005      -0.05303480       0.02457684       0.06000132      -0.29587210      -0.06982687      -0.72636580       0.07248820
C        8.74918565       7.99000222       6.52059941      -0.44596818       0.81769887      -0.04345273       0.23157052       0.32786879      -1.20939514       0.00669541
C        7.57569730       7.20163879       8.52009619      -0.12920979      -0.16785661      -0.10020256      -0.00683727       0.83876079      -0.83140307       0.01221633
C        7.55544559       8.19780628       5.83188193      -0.05574658      -0.25164779      -0.08171981      -0.90034627       0.23032418       0.11612576      -0.02240885
C        6.34208140       7.95198122       6.49229878      -0.00336723       0.53368329      -0.32308504       1.90672268      -0.39213239       1.07257398      -0.00403827
H       10.83161391       6.68243815      10.14276226       0.29362626      -0.12667985       0.19144312      -0.10384373      -0.22071011      -0.52832950       0.38210804
H        3.20227254       7.66824145       8.40184414      -0.05158214      -0.33871261      -0.17308160       1.49620728       0.02318649      -0.95393692       0.38033422
18
Lattice="15.108652899924854 0.0 0.0 0.0 15.108652899924854 0.0 0.0 0.0 15.108652899924854" Properties=species:S:1:pos:R:3:momenta:R:3:forces:R:3:charge:R:1 energy=-1059.7970030286326 free_energy=-1059.7970030286326 dipole="-0.2585935217237503 0.0773181192972527 -0.3680443602679689" stress="0.0 0.0 0.0 0.0 0.0 0.0 0.0 0.0 0.0" pbc="T T T"
H        5.45811362       8.07229364       5.97605263       0.23917494       0.14895508       0.02547043      -0.70227577       0.16917661      -0.00337852       0.05890790
H        7.62590745       8.61371092       4.82601047      -0.06369099      -0.04878809      -0.17830769      -0.57726228      -0.30001611       0.23292219       0.04610924
C        8.72529814       7.48579244       7.78152144       0.90454025       0.18451902      -0.15585182       2.03980842       0.03657883       1.21228047      -0.02980011
C       10.09521513       7.25695757       8.43510014      -0.85277283      -0.55638275       1.02794635       0.01821558      -0.71828313       0.50515210       0.56988552
O       10.04229044       6.54868533       9.60832981      -0.78101752       0.77772460      -0.14286795       1.07995036       0.62712504      -0.50249247      -0.51251799
O       11.17675879       7.58232329       8.00461882       1.01899922      -0.89045841      -0.29146370      -0.91761343       0.16744122      -0.21597683      -0.52158607
C        6.39920386       7.48695118       7.82889600       0.23464878      -0.05303072      -0.77461828      -1.12421739       0.51256508      -0.83338755      -0.02873455
C        5.11003441       7.23108862       8.45675701      -0.47494687       0.90481787      -0.25443968      -1.90263801       0.26456467       0.00311102       0.57839552
O        4.02601709       7.78960827       7.84930643      -0.20620581      -0.16220126      -0.01392727       0.27608385      -0.07609578      -0.56252821      -0.52421593
O        4.89790915       6.56510618       9.42334448      -0.08823008      -0.75152809       0.68539215       0.61500368      -0.89751134       1.13132347      -0.52494579
H        9.69477534       8.10414274       6.00662476       0.36591717      -0.05938736       0.03481951      -0.36935768       0.37420984       0.11916206       0.06022853
H        7.52041158       6.86468085       9.53795650      -0.08673831      -0.11002666      -0.01087423       0.26951467       0.09127315      -0.69341771       0.07518446
C        8.71946345       8.04391845       6.50438887      -0.48167815       0.36871176      -0.01578649       1.23539181      -1.21199725       0.33557930      -0.00020677
C        7.56588575       7.21989864       8.49347091      -0.06068723       0.27620444      -0.31992516       0.38054695      -0.02712979       0.57839629       0.01262839
C        7.53362057       8.19203371       5.83382402      -0.32420090       0.20005032       0.15350340       0.80548787       1.06448723      -0.82529312      -0.01885067
C        6.37157171       7.97995460       6.51948176       0.03756037       0.17468507       0.72478562      -0.06558343      -0.42437699      -0.10889533       0.00054452
H       11.00049792       6.48090767       9.92459057       0.40295687      -0.24966524      -0.24296587      -1.48711813       0.02829266      -0.42306838       0.37858192
H        3.21759440       7.36468768       8.20625971       0.21637109      -0.15419958      -0.25088934       0.42606292       0.31969604       0.05051123       0.38039191
18
Lattice="15.108652899924854 0.0 0.0 0.0 15.108652899924854 0.0 0.0 0.0 15.108652899924854" Properties=species:S:1:pos:R:3:momenta:R:3:forces:R:3:charge:R:1 energy=-1059.7901706187326 free_energy=-1059.7901706187326 dipole="-0.43962438400682846 -0.0571074281431155 -0.34593291556312794" stress="0.0 0.0 0.0 0.0 0.0 0.0 0.0 0.0 0.0" pbc="T T T"
H        5.43059208       8.22966275       6.09164460       0.02562831       0.15995968       0.29168019      -0.60046543       0.11234937      -0.61791902       0.05566510
H        7.42830626       8.51464448       4.78915910      -0.07570440      -0.00995491      -0.18144306       0.61364048       0.18537858       0.20523539       0.04602851
C        8.80578222       7.49349311       7.82894832       0.23017182       0.35817395       0.90093605      -1.58440341       0.64354715      -0.69802349      -0.03696875
C       10.10209420       7.22965679       8.46911508       1.12476566       0.33960339      -0.67231917       0.23949176       0.95399520      -1.37494629       0.58390439
O       10.01665543       6.60543163       9.60141734      -0.62129539       0.50728075       0.29785989       1.61986971      -1.62675562       1.55087040      -0.48996334
O       11.17439641       7.53021932       7.99782887      -0.94718127      -1.03658039       0.07200125       0.03602603       0.04779613      -0.36675441      -0.55132789
C        6.37668659       7.48292451       7.78533137      -0.56493112      -0.20788051       0.25406386      -0.18300548       0.02043484       1.89007923      -0.04064313
C        5.02769342       7.23823899       8.47574457      -0.60978915      -0.93451074       0.86817769       2.20780640      -0.48098281      -0.29988076       0.57888196
O        4.02592248       7.79101443       7.81937415      -0.36590357       0.06356922      -0.61351430      -0.70187846      -0.42533321       0.13579868      -0.49993055
O        4.90044813       6.52987888       9.44179469       0.19294026       0.01439692      -0.28192754      -0.15214552       0.25332053      -0.13944955      -0.52905183
H        9.71670828       8.26293987       6.09164674       0.19947125       0.36254437      -0.16560225      -0.04916961       0.00114398      -0.33202353       0.05806085