18
Lattice="15.108652899924854 0.0 0.0 0.0 15.108652899924854 0.0 0.0 0.0 15.108652899924854" Properties=species:S:1:pos:R:3:momenta:R:3:forces:R:3:charge:R:1 energy=-1059.6680065037838 free_energy=-1059.6680065037838 dipole="-0.5091125827649379 0.08055089021327676 -0.1954097071952216" stress="0.0 0.0 0.0 0.0 0.0 0.0 0.0 0.0 0.0" pbc="T T T"
H        5.40016054       8.16611172       5.98440502       0.14176183       0.15254988      -0.13524487       0.15494181      -0.03268227      -0.01333857       0.05153329
H        7.55927610       8.55372943       4.78412729       0.33361483      -0.16862866      -0.07540210       0.00054614      -0.01691078       0.15176779       0.04390613
C        8.76398608       7.41900373       7.76996354      -0.49495812       0.61114094       0.27932220      -0.55481994      -0.22554440       0.21441202      -0.02897028
C       10.05845603       7.24244997       8.48814500       0.59987776       0.34617132      -0.17754629       2.73473054       3.38689074      -4.27362209       0.57072855
O       10.05780265       6.54359135       9.55785645       0.07215612      -0.36944502       0.60996029       0.28045554      -0.80906001       1.40279110      -0.46883708
O       11.06958161       7.83128704       7.96644492      -1.38868638      -0.25696328       0.58449975      -2.80423740      -2.29837254       2.38102382      -0.57429138
C        6.34300288       7.42073465       7.76791762       0.54149102       0.07880773       0.27941677       0.03719338       0.36620260      -0.43273340      -0.02864399
C        5.04609727       7.24342361       8.48369033       0.22099716       0.83731075       0.36964851       2.55954043      -3.33482767       4.11471429       0.57058520
O        4.03458017       7.83247705       7.96329450       0.69101370      -0.28731622       0.60702517      -1.52224179       0.55955047      -0.38238603      -0.47378849
O        5.04490330       6.54229316       9.55185860      -0.24109481      -0.52950434       0.35045430      -0.69836794       2.48410231      -3.47899313      -0.56912455
H        9.71515379       8.16189261       5.99054583       0.50643351       0.04041993       0.47405411      -0.11987031      -0.03339793       0.02848328       0.06432659
H        7.55327307       6.72620333       9.41969530      -0.34013990      -0.34094001       0.17799983      -0.07091519       0.04308835      -0.10522120       0.07040769
C        8.76217772       7.93946949       6.46476151      -1.35869908      -0.62711254      -1.57101800      -0.20516962      -0.06343190       0.17675732       0.00806876
C        7.55278023       7.13037296       8.41037951       0.57289495       0.14032322      -1.50954393      -0.07216388       0.14371524      -0.22868230       0.00628497
C        7.55738512       8.17465813       5.80352491       0.14747906       0.39509572      -1.10027587       0.02420214      -0.12668217       0.31044825      -0.02464967
C        6.35060663       7.94152496       6.46261286       0.12812244       0.18429198       0.69446338       0.26177601      -0.04060959       0.13702916      -0.00584379
H       10.94971351       6.51705994       9.94658211      -0.02119233       0.06723629       0.23753794      -0.00593265      -0.00144830      -0.00242150       0.39402392
H        3.23558716       7.66625440       8.49396974      -0.11107176      -0.27343768      -0.09535119       0.00033274      -0.00058214      -0.00002881       0.39428412
18
Lattice="15.108652899924854 0.0 0.0 0.0 15.108652899924854 0.0 0.0 0.0 15.108652899924854" Properties=species:S:1:pos:R:3:momenta:R:3:forces:R:3:charge:R:1 energy=-1059.0400477590065 free_energy=-1059.0400477590065 dipole="-0.260573783905485 0.002137113487615338 -0.22178164940471806" stress="0.0 0.0 0.0 0.0 0.0 0.0 0.0 0.0 0.0" pbc="T T T"
H        5.45581732       8.21833386       5.95405571      -0.20700477      -0.04557684       0.03137384      -0.11514673      -0.08581090       0.30708842       0.04971621
H        7.73392060       8.44008670       4.70716431      -0.25147102       0.01445744       0.09121044      -1.03188358       0.35981489      -0.14547074       0.05297555
C        8.73026286       7.44675021       7.74865644       0.19666408       0.45646353      -1.04825675       0.51035861      -0.61811728      -0.21607472      -0.03667269
C       10.06360577       7.28367968       8.42450932      -2.01190705      -0.79059195       0.33648877      -2.64286462      -2.33546585       2.60290302       0.58602363
O       10.08734565       6.50849887       9.61113399       0.27545112      -0.73722810       0.75100856      -0.32006911       0.98827131      -1.01811192      -0.54426286
O       11.01648801       7.80134568       8.02177008       1.18236070       0.39600434       0.36380715       3.45788073       1.67570301      -1.18747466      -0.49116440
C        6.35447451       7.47119694       7.74706811      -0.24901991       1.00379574      -0.50429540      -0.11226932      -0.44224919       1.40198376      -0.03699147
C        5.14010461       7.21136711       8.60793912       1.49080470      -0.41463897       0.82084848      -1.08895075       3.60561348      -6.33501550       0.59134807
O        4.03228751       7.83333569       7.99426066      -0.10073230      -0.33728792       0.36523530       1.65141467      -0.24918686       0.15192924      -0.55294890
O        5.02507234       6.54288932       9.52148894      -0.79872255       0.19235772      -0.07470199      -0.10894147      -3.06938595       4.51272148      -0.47359107
H        9.75270414       8.04530921       6.18014986       0.07979315      -0.11778385      -0.37081849       0.54901625       0.49180498      -1.50739723       0.06843873
H        7.48442046       6.54784393       9.24221632       0.21775949      -0.40585461       0.27865734       0.24135342      -0.09977500       0.92987225       0.06759711
C        8.72622940       7.91422926       6.41327030       0.01675002      -0.03384847       0.59185209      -0.09216880       0.08026878       1.88692778      -0.01385093
C        7.55306819       7.11764515       8.34657655      -0.23064728       0.10554613      -0.61771546      -0.44138970      -0.23408712       0.41688490       0.00044016
C        7.53995964       8.21613703       5.74510362      -0.14910125       0.29672809      -0.42233677       1.97491132      -1.16615152       1.04065418      -0.02606282
C        6.38058850       7.97110642       6.47979113       0.60479061       0.71512105      -0.40526776      -1.15835668       1.16537962      -2.24724064       0.01284770
H       10.89743504       6.59749001      10.17681332       0.05615197      -0.02882617       0.02852479      -0.65609267       0.12642080      -1.10484850       0.37310926
H        3.22245818       7.43088061       8.29155069      -0.12191971      -0.26883715      -0.21561412      -0.61680158      -0.19304723       0.51066888       0.37304872
18
Lattice="15.108652899924854 0.0 0.0 0.0 15.108652899924854 0.0 0.0 0.0 15.108652899924854" Properties=species:S:1:pos:R:3:momenta:R:3:forces:R:3:charge:R:1 energy=-1058.9743721810714 free_energy=-1058.9743721810714 dipole="-0.40471574972494095 0.09567930742824532 -0.5619281186513746" stress="0.0 0.0 0.0 0.0 0.0 0.0 0.0 0.0 0.0" pbc="T T T"
H        5.38923846       8.23945472       5.94792733      -0.09905060       0.17228906      -0.32273783       0.15705234       0.15320602      -0.06844225       0.05645799
H        7.39037690       8.54488328       4.73597557       0.07471287       0.00061575       0.28652833       1.14146471      -0.21166077       0.46603094       0.04819766
C        8.74504035       7.44090331       7.71369348       0.03165563      -0.29292791       0.52447109       0.52614992      -0.87576666       0.97383570      -0.01706937
C       10.00558011       7.22444147       8.49208237       1.93814569       0.07260034       0.44336937       3.53741791       1.72529570      -1.82063066       0.56081935
O       10.06676044       6.50200358       9.61817481      -0.42824102       0.52645238      -0.27575619       1.06950060       0.97174559      -0.06639380      -0.48685028
O       11.06037719       7.78193062       8.06393601      -0.80417717      -1.17584998       1.10703796      -2.89515565      -1.57078210       1.34331960      -0.55843332
C        6.36390938       7.54611553       7.74158895       0.34960400       0.67785562       0.16127224      -0.70384223      -0.66839985      -0.05327303      -0.02425337
C        5.15418887       7.23318710       8.52922999      -1.60876369      -0.24535201      -0.66397546      -1.86576675      -2.84942009       3.89298289       0.56541902
O        4.07285206       7.78920713       8.02125063       1.26140457      -0.81270454       0.18658347       0.38072603       1.15414959      -1.55160729      -0.50281186
O        5.00112056       6.49675148       9.57440330      -0.00090127      -0.15618902       0.27350693       1.62476239       2.65352836      -4.13413050      -0.55372137
H        9.58900108       8.11559288       5.74645592      -0.12657920       0.13474680      -0.24633381       0.52710394      -0.04880555       1.02303732       0.06356703
H        7.62473418       6.56493744       9.18760252       0.02233801      -0.08620021       0.43934941      -0.43999125      -0.82704807       1.90657785       0.07905034
C        8.75455687       7.96545567       6.43790672       0.38592822       1.01025404      -0.62268811       0.58244391       0.22983460      -1.68676923       0.01633132
C        7.53020388       7.10576917       8.31236535       0.18774812      -0.09625409      -1.08891828       1.29511712       1.24138681      -1.34185294       0.00039183
C        7.57535670       8.19546677       5.76964977       0.00858647      -0.65309106       0.58225341      -2.58815349       0.47608143      -0.56536682      -0.02633991
C        6.34904759       8.05018711       6.41397028      -1.04743035       1.01086981      -0.51983834       0.18163535      -0.48556570       1.53672393       0.00019814
H       11.00589335       6.68922759       9.98845712       0.06892664       0.03923649      -0.37174156      -1.76223127      -0.55092882      -0.67885910       0.38845536
H        3.24244843       7.37650178       8.20751606      -0.21390692      -0.12635146       0.10761737      -0.76823359      -0.51685049       0.82481739       0.39059143
18
Lattice="15.108652899924854 0.0 0.0 0.0 15.108652899924854 0.0 0.0 0.0 15.108652899924854" Properties=species:S:1:pos:R:3:momenta:R:3:forces:R:3:charge:R:1 energy=-1058.982648268326 free_energy=-1058.982648268326 dipole="-0.50018923419001 -0.026471426807501246 -0.2844202002411827" stress="0.0 0.0 0.0 0.0 0.0 0.0 0.0 0.0 0.0" pbc="T T T"
H        5.43171449       8.31508664       5.78330307      -0.05932221       0.03082038      -0.08050891      -0.34054080      -0.04641827       0.64578280       0.05682440
H        7.64860899       8.58482283       4.75238538       0.16550007      -0.26744353       0.09241270      -0.70862201      -0.65304178       1.24769334       0.03118326
C        8.80507528       7.39976311       7.71655763       0.96777279      -0.74645419      -0.39070640      -1.16880228       0.40376290      -0.70122758      -0.03301598
C       10.05714306       7.24385329       8.47551005      -1.28408565       0.01558511      -0.29093528      -1.05142839      -0.46120236       0.07165613       0.58608007
O       10.04755674       6.55127925       9.60605816      -0.12398358       1.04219653       0.35769660       0.45815720      -0.61779971       0.77620474      -0.50590521
O       11.06672411       7.75042731       8.13214881       2.34388155       0.69474062       0.46067291       2.39474125       1.33614233      -1.27337146      -0.53946265
C        6.34817393       7.57077322       7.73414267      -0.52719329      -0.45811817      -0.05892726      -0.37881214      -1.87635850       0.38226871      -0.05298569
C        5.07211036       7.14412448       8.55857131       0.47086866      -0.23000213      -0.85102223       3.26193896       4.67463242      -5.94575064       0.59740502
O        4.07269758       7.76960281       7.99929514      -0.64113914       0.15110844      -0.95661038      -2.21874749      -0.09420018      -0.10743624      -0.50575749
O        5.02590837       6.53527073       9.51525483       0.67198666       0.03475970      -0.36048774      -0.07470335      -3.83302915       5.23303974      -0.49959681
H        9.70788175       8.21513753       5.87190233       0.12419650      -0.02537105       0.28169818      -0.49545728      -0.06671456       0.32100700       0.05756574
H        7.41395449       6.71423666       9.21693583      -0.31324235       0.13602407      -0.00400881       0.14437833      -1.60063237       3.29906268       0.07283585
C        8.77280649       8.00457845       6.40863631      -0.03220852      -0.39900459       0.41814332      -0.33147131      -1.27420673       1.48156535      -0.00009175
C        7.57305883       7.09585904       8.30452373      -0.01009358       0.32148149       0.54206680      -0.77375209       2.73522627      -3.69649912      -0.01140476
C        7.52424689       8.15519096       5.80496363      -0.76555189       0.00169609      -0.24781999       1.32800590       1.71985741      -1.92108828      -0.02475484
C        6.27346364       8.07526836       6.41915174      -0.51005631      -0.21610617       0.51764588       1.61395664      -0.77967009       0.61986939       0.00678137
H       11.00763318       6.55488749       9.89665505      -0.25050322      -0.31423959       0.15345950      -1.22387724      -0.06110928      -0.09721796       0.38139491
H        3.31794566       7.43936952       8.52455871      -0.22682651       0.22832699       0.41723110      -0.43496391       0.49476166      -0.33555863       0.38290456
18
Lattice="15.108652899924854 0.0 0.0 0.0 15.108652899924854 0.0 0.0 0.0 15.108652899924854" Properties=species:S:1:pos:R:3:momenta:R:3:forces:R:3:charge:R:1 energy=-1059.3881252722058 free_energy=-1059.3881252722058 dipole="-0.29867775979178784 0.12377120868993208 -0.3691556632299848" stress="0.0 0.0 0.0 0.0 0.0 0.0 0.0 0.0 0.0" pbc="T T T"
H        5.33078323       8.28977368       6.03048545      -0.16526054      -0.12180417       0.42759019      -0.01502821       0.11541516      -0.30006140       0.06556868
H        7.57848805       8.37436695       4.71814771      -0.24194442       0.03234248       0.08368449      -0.16565780       0.38227156       0.78361695       0.04551458
C        8.77666410       7.36125414       7.70524871      -1.51970646      -0.04495839       0.72287513      -0.07402630       0.43078196       1.62298383      -0.02408061
C       10.09274487       7.26277620       8.43599465       2.51589608       0.68471185      -0.42355565       2.50748886       0.67087021       1.02013622       0.57300317
O       10.00663705       6.59435950       9.61959743      -1.25352804       0.20359506      -0.14653029      -0.65074484      -0.27054288      -0.73802877      -0.51231983
O       11.18004646       7.78883621       8.14961748       0.49877293      -0.22397927       0.26859625      -2.90694340      -1.19044632      -0.24588981      -0.52698219
C        6.32858079       7.47569970       7.72996001       0.49019193      -1.66025122      -0.31126438       1.04420844       0.43688667      -0.69489682      -0.01960848
C        5.14167768       7.19832641       8.44946377       0.18355503       0.41335984       0.14157840      -3.59460170      -1.93159497       4.35750312       0.55941166
O        3.97965521       7.78042580       7.95123798      -1.78900923       0.43953992      -0.90810353       1.26450300      -0.37834780       0.85551241      -0.52111009
O        5.07689474       6.50173776       9.51294753       1.23966994       0.08099482      -1.43875772       0.27743931       2.49926694      -3.69501920      -0.54049298
H        9.67534283       8.22714972       5.99310870      -0.09956906      -0.03397764       0.02277741      -0.31158270      -0.28681233      -0.03338823       0.05940747
H        7.49564118       6.64533407       9.23625686       0.51437070      -0.07582600      -0.23310877      -0.02082527      -0.77715253       1.77828788       0.07840868
C        8.73100054       7.93834351       6.47188416      -0.67252914      -0.85873773       0.55181251       0.39910993       0.66828012      -1.65183429       0.00667493
C        7.53360163       7.14389829       8.32758928      -0.51632935       0.58249442       0.59232363       0.95819644      -0.04221716      -1.08856976       0.01093122
C        7.52637809       8.18027165       5.80708110       0.33285290       0.14338854      -0.06073923      -0.68091792       0.00398006      -0.54118255      -0.02405940
C        6.28731485       8.06276456       6.46792400       0.97259502       0.11953816       0.55718529       1.53761880      -0.43913029      -0.64467473       0.00368567
H       10.86115477       6.35650588      10.02636778      -0.26906563       0.04741576      -0.01709601      -0.12423890       0.51241361      -0.37945169       0.38421653
H        3.27572272       7.81524162       8.63841576      -0.22096266       0.27215359       0.17073227       0.55600226      -0.40392201      -0.40504316       0.38183098
18
Lattice="15.108652899924854 0.0 0.0 0.0 15.108652899924854 0.0 0.0 0.0 15.108652899924854" Properties=species:S:1:pos:R:3:momenta:R:3:forces:R:3:charge:R:1 energy=-1058.893777048927 free_energy=-1058.893777048927 dipole="-0.3383090041358643 0.12393995016488167 0.0592582472022594" stress="0.0 0.0 0.0 0.0 0.0 0.0 0.0 0.0 0.0" pbc="T T T"
H        5.36371764       8.35246108       6.19474343       0.12192777       0.22432803      -0.28803691      -0.53177060       0.36150489      -0.92162005       0.06014648
H        7.48050542       8.60989288       4.79347725       0.19755766       0.20202916       0.10448653       0.39510012      -0.25800715       0.52960717       0.03819361
C        8.72844656       7.40150546       7.77472480       1.19794087       0.91680112       0.29166978       2.62021472       0.98470896      -0.88978609      -0.03750472
C       10.19147445       7.29828097       8.45923826      -1.52518381      -0.48649669       0.94986111      -2.23902517       0.50844912      -0.63068231       0.57294873
O        9.91322510       6.60092099       9.57790551      -1.06778522       0.30013709      -0.77609260       0.87727764       0.38408828      -0.77353971      -0.50277102
O       11.25582377       7.78589580       8.12406409       2.59996383       0.85136053      -1.13724676      -2.19586232      -1.23239150       0.61233167      -0.50610383
C        6.36251202       7.37535460       7.69897213       0.19070020      -0.81929323      -0.38215559      -1.32078000       1.48839629       0.69172200      -0.04393536
C        5.06666586       7.21288204       8.50104726      -1.05993965       0.77307219      -1.11921811       0.68104827       2.28083497      -5.75114541       0.58449530
O        3.91956813       7.78812430       7.93433867      -0.15392655       0.16696934       0.23957399       0.42383806      -0.32762652       3.05411007      -0.52788295
O        5.15107034       6.53285954       9.41929000       0.74717287      -0.28180140       0.23661286      -1.40446323      -2.57076157       4.96781673      -0.48771583
H        9.65513796       8.08576900       5.97862317      -0.11760452      -0.34619975       0.03687137      -0.30873549      -0.05405407       0.05710924       0.04893471
H        7.63452704       6.58659037       9.30921132      -0.40354866       0.07516965      -0.10414727      -0.66126428      -0.23484970       1.09715556       0.07340645
C        8.69257232       7.89717383       6.46925754      -0.39016741      -0.37516606      -0.09507422       1.25715097       0.02905641      -0.14832149      -0.00884459
C        7.53274233       7.12790289       8.40849889       0.16361957      -1.16212802       1.73414144       0.57851371      -0.42578043      -1.07503892       0.00754899
C        7.51696314       8.17494897       5.80933946      -0.15759856       0.32486238      -0.47709826       0.25000043       1.05974525      -1.55332348      -0.01604156
C        6.34229024       8.06030403       6.47677442       0.10116977      -0.34317568       0.47219094      -0.43213620      -1.31739155       1.64457156      -0.00994653
H       10.74653310       6.41647317       9.99322760      -0.26144048       0.05734679       0.11714928       0.85950723      -0.26683750       0.85891505       0.38286050
H        3.25655012       7.89025397       8.71192989      -0.18285770      -0.07781545       0.19651240       1.15138614      -0.40908418      -1.76988158       0.37221162
18
Lattice="15.108652899924854 0.0 0.0 0.0 15.108652899924854 0.0 0.0 0.0 15.108652899924854" Properties=species:S:1:pos:R:3:momenta:R:3:forces:R:3:charge:R:1 energy=-1058.619618177193 free_energy=-1058.619618177193 dipole="-0.5456196634121027 0.2698905839169054 -0.11262086562231118" stress="0.0 0.0 0.0 0.0 0.0 0.0 0.0 0.0 0.0" pbc="T T T"
H        5.45999228       8.40339503       5.97233496      -0.00224090      -0.14690671      -0.09123078      -0.82611308      -0.17114283       0.38803771       0.05684574
H        7.63884652       8.88020163       4.85620665      -0.00962973       0.21662582      -0.07502355      -0.50923084      -1.30730653       0.93908067       0.04791432
C        8.81445819       7.47745811       7.81339635       0.27184933       0.62896393       0.90337637      -3.04364757      -0.94290971      -0.57149650      -0.02907879
C       10.15723501       7.34264940       8.42990811       0.86507360       1.89361488      -1.41955180       0.75218531       0.17802647       0.15947624       0.57722543
O        9.88055394       6.62305929       9.53649434       0.11094613       0.30238527      -0.30191936      -1.00220232       0.40645503      -1.25773894      -0.51643678
O       11.26456194       7.76897752       8.09893761      -2.16782671      -1.61631735       0.51773879      -2.73805762      -1.03400411       0.70740659      -0.52450622
C        6.34808701       7.34941667       7.71168541      -0.22427030       0.07316636       0.35968088       0.86660196       0.93590545      -0.03521975      -0.03087777
C        5.06609435       7.21419317       8.41718069       0.90527756      -1.56188614       0.71359632       0.75557930      -2.30873242       2.59085364       0.57030085
O        3.93977617       7.77963887       7.98275414       0.57282702      -0.18470773       0.63594461      -0.62814066       0.11550805       1.63062867      -0.49273873
O        5.15163260       6.52348662       9.44629649      -0.78813893       0.08902639      -0.08044720      -1.64095407       1.27590535      -1.03923985      -0.55540036
H        9.64288028       7.91788052       5.93223794      -0.13094221       0.06676657      -0.08395553      -0.05176103       0.45525796       0.05087575       0.05256140
H        7.28906540       6.66871364       9.42691784      -0.06125971       0.39345544      -0.32046422       0.80137146      -0.33636702       0.86468935       0.09229920
C        8.69212499       7.88284390       6.46706271       0.85497064       0.11051383      -0.10741266       0.53659181       0.08432495      -0.24200777      -0.00188746
C        7.55235543       7.04170075       8.47255987       0.10061924      -0.86058146      -0.29389052       0.26872753       2.37203500      -3.90631165       0.01791492
C        7.51773224       8.21856394       5.76843190       0.02503175       0.54910564       0.04071786       0.42266487       0.59222511       1.28949171      -0.02913338
C        6.31337483       8.01981581       6.49443881      -0.30869875      -0.07050191      -0.49513894       2.13270307       0.33724301      -1.64959414      -0.00393507
H       10.59883238       6.51563178      10.09485635      -0.08176072       0.19706885       0.00156050       2.45046415      -0.37255226       1.70959820       0.38307000
H        3.24630519       7.78036440       8.74570549       0.06817269      -0.07979167       0.09641923       1.45321773      -0.27987149      -1.62852993       0.38586270
18
Lattice="15.108652899924854 0.0 0.0 0.0 15.108652899924854 0.0 0.0 0.0 15.108652899924854" Properties=species:S:1:pos:R:3:momenta:R:3:forces:R:3:charge:R:1 energy=-1059.3552753501979 free_energy=-1059.3552753501979 dipole="-0.4846581539233862 0.2306266577035299 -0.20901379733590875" stress="0.0 0.0 0.0 0.0 0.0 0.0 0.0 0.0 0.0" pbc="T T T"
H        5.36376482       8.17172307       6.05796081       0.04372350      -0.25231088       0.10264141      -0.10260631       0.43101037      -0.48926781       0.06329973
H        7.53293004       8.69563796       4.81330709      -0.07496392      -0.29092513      -0.34605941       0.25149784      -0.41098669       0.86219019       0.04283000
C        8.73828547       7.51673936       7.83268799      -1.15503870       0.58686536      -1.00687121       0.70626284       0.31310366      -3.74083580      -0.02487563
C       10.05951452       7.38813267       8.40180047      -2.49354822      -0.57955965       1.23664698       2.55757991      -1.21021893       1.72861326       0.57470898
O        9.91558895       6.66044059       9.53011282       0.70024363       0.77087062      -0.06858089      -1.74966570      -0.04148095      -0.17317202      -0.52273925
O       11.20290407       7.69981524       8.08898166       0.14214194      -0.50292474      -0.77080000      -2.18986550       0.36375518      -0.56581513      -0.53097804
C        6.37111093       7.38910677       7.71228642       0.78415762       0.33450845      -0.70059696      -0.51086686      -0.19847130      -0.55743552      -0.03352212
C        5.12650293       7.10653941       8.45458695       0.12880522      -0.03010267      -0.96333510      -1.08054337       1.53591390      -0.62622985       0.57890288
O        4.00771092       7.76159463       8.01769092       1.18603751      -0.53713772       1.09377977      -0.79411758      -0.54773443       1.35647370      -0.51811136
O        5.07501470       6.50519003       9.47407096      -1.60402800      -1.28893206       1.81206734       0.19028966      -1.23180913       1.41416119      -0.52097424
H        9.67957912       8.03771637       5.91550301       0.00301250       0.14168541       0.30395557      -0.37152916       0.03822023       0.46354956       0.05822047
H        7.56177707       6.82991158       9.44816131       0.44299177       0.08178508      -0.51344770      -0.29185528      -0.31753981      -1.00374171       0.07397332
C        8.73058499       7.89880541       6.45838006       0.11559254       0.83600030      -0.18174717       0.58418523       0.78743454       0.31364182      -0.00193325
C        7.55889330       7.06408652       8.35645080       0.06203347       1.07583303      -0.79345471      -0.23179598       1.02225393       2.23574739       0.01746777
C        7.55504717       8.26208815       5.84330139       0.70414864      -0.00063409       1.58934230      -0.25502445       0.20427580      -1.74809389      -0.01611476
C        6.34792552       8.01088168       6.45270887       0.62676383      -0.35586637      -0.45754165      -0.16142188      -0.82832276       1.37143761       0.00112727
H       10.69316068       6.67169457      10.04291127       0.38863158       0.15322259      -0.19104460       1.80249121      -0.12379449       0.92007187       0.38166382
H        3.28456173       7.62582855       8.75174610      -0.00070491      -0.14237752      -0.14495395       1.64698537       0.21439087      -1.76129486       0.37705441
18
Lattice="15.108652899924854 0.0 0.0 0.0 15.108652899924854 0.0 0.0 0.0 15.108652899924854" Properties=species:S:1:pos:R:3:momenta:R:3:forces:R:3:charge:R:1 energy=-1059.2486441332287 free_energy=-1059.2486441332287 dipole="-0.3449036403121287 0.14947821327024588 -0.37810470719281786" stress="0.0 0.0 0.0 0.0 0.0 0.0 0.0 0.0 0.0" pbc="T T T"
H        5.43007055       8.09056100       5.95509784       0.16423979       0.08393482      -0.35037826      -0.34287009       0.19320973      -0.38301000       0.05541523
H        7.60044235       8.39611884       4.75929188       0.02238984       0.02541267      -0.47947284      -0.18328775       0.66437865       0.30196473       0.04016933
C        8.73573754       7.53834697       7.68283663       0.91114188      -0.37755176      -0.78442829       1.29796184      -1.42403701       4.73261955      -0.03351855
C       10.02071467       7.36202404       8.46386002       0.75342568      -0.04866640      -0.59433673      -1.91272422      -0.46135264      -1.45060672       0.57872833
O        9.94345963       6.69949680       9.58470883       0.16882631       0.06837197       1.75438782      -1.18761339      -0.36686795       0.97957903      -0.50409224
O       11.09042420       7.67093948       8.06164245      -2.75691657      -0.30971254       0.04166571       1.98692694       1.25179422      -1.31387645      -0.54336489
C        6.39621566       7.37483012       7.67628878      -0.58639674      -0.48520195       0.31214962      -2.13928163      -0.73229011       2.47004028      -0.02223037
C        5.12188182       7.08956128       8.47827182      -0.02199092      -0.64104056       1.55327100       0.35892081      -0.73359591       2.15414789       0.57312183
O        4.07092211       7.72724434       8.05120137      -0.01081581      -0.31677470       0.12660014      -2.60742864       0.37634545      -0.39685819      -0.48797348
O        5.00016098       6.47755558       9.54144349      -0.45662544       0.47611423       0.01613523       1.35669296       0.24734695      -1.63725665      -0.54952131
H        9.75123837       8.23787111       6.00401785      -0.06975265       0.13659577      -0.15424671      -0.36443372      -0.06954779      -0.10387066       0.06072306