18
Lattice="15.108652899924854 0.0 0.0 0.0 15.108652899924854 0.0 0.0 0.0 15.108652899924854" Properties=species:S:1:pos:R:3:momenta:R:3:forces:R:3:charge:R:1 energy=-1059.6680065037838 free_energy=-1059.6680065037838 dipole="-0.5091125827649379 0.08055089021327676 -0.1954097071952216" stress="0.0 0.0 0.0 0.0 0.0 0.0 0.0 0.0 0.0" pbc="T T T"
H        5.40016054       8.16611172       5.98440502       0.08226790       0.08837173      -0.03357878       0.15494181      -0.03268227      -0.01333857       0.05153329
H        7.55927610       8.55372943       4.78412729       0.01285904      -0.00372116       0.00291128       0.00054614      -0.01691078       0.15176779       0.04390613
C        8.76398608       7.41900373       7.76996354      -0.69086197       0.65584947      -0.00849903      -0.55481994      -0.22554440       0.21441202      -0.02897028
C       10.05845603       7.24244997       8.48814500      -0.01798003       0.06980244       0.04448145       2.73473054       3.38689074      -4.27362209       0.57072855
O       10.05780265       6.54359135       9.55785645       0.47090596      -0.05199878       0.31479077       0.28045554      -0.80906001       1.40279110      -0.46883708
O       11.06958161       7.83128704       7.96644492      -0.05362113      -0.47836832      -0.25182947      -2.80423740      -2.29837254       2.38102382      -0.57429138
C        6.34300288       7.42073465       7.76791762      -0.33959483       0.08204552      -0.23275984       0.03719338       0.36620260      -0.43273340      -0.02864399
C        5.04609727       7.24342361       8.48369033       0.42351143      -0.08802144      -0.31673453       2.55954043      -3.33482767       4.11471429       0.57058520
O        4.03458017       7.83247705       7.96329450      -0.02914809      -0.39547388       0.17378458      -1.52224179       0.55955047      -0.38238603      -0.47378849
O        5.04490330       6.54229316       9.55185860      -0.31853203       0.10351428       0.18669828      -0.69836794       2.48410231      -3.47899313      -0.56912455
H        9.71515379       8.16189261       5.99054583       0.08868476       0.09151010      -0.00067215      -0.11987031      -0.03339793       0.02848328       0.06432659
H        7.55327307       6.72620333       9.41969530       0.09654734      -0.06056326      -0.08837637      -0.07091519       0.04308835      -0.10522120       0.07040769
C        8.76217772       7.93946949       6.46476151      -0.05333981      -0.31775087      -0.12204120      -0.20516962      -0.06343190       0.17675732       0.00806876
C        7.55278023       7.13037296       8.41037951      -0.29201892       0.05020712      -0.25499043      -0.07216388       0.14371524      -0.22868230       0.00628497
C        7.55738512       8.17465813       5.80352491       0.12830288       0.01803471       0.05236945       0.02420214      -0.12668217       0.31044825      -0.02464967
C        6.35060663       7.94152496       6.46261286       0.42425979       0.12893630       0.61548087       0.26177601      -0.04060959       0.13702916      -0.00584379
H       10.94971351       6.51705994       9.94658211       0.01327157       0.10360636      -0.00323969      -0.00593265      -0.00144830      -0.00242150       0.39402392
H        3.23558716       7.66625440       8.49396974       0.05448614       0.00401968      -0.07779519       0.00033274      -0.00058214      -0.00002881       0.39428412
18
Lattice="15.108652899924854 0.0 0.0 0.0 15.108652899924854 0.0 0.0 0.0 15.108652899924854" Properties=species:S:1:pos:R:3:momenta:R:3:forces:R:3:charge:R:1 energy=-1059.6673546176075 free_energy=-1059.6673546176075 dipole="-0.2082331878512905 0.12367250211433164 -0.2569749829813632" stress="0.0 0.0 0.0 0.0 0.0 0.0 0.0 0.0 0.0" pbc="T T T"
H        5.45820073       8.21748355       5.96652971       0.00998221       0.02921556      -0.00497192       0.03003322      -0.07713394       0.15984132       0.05367320
H        7.54195023       8.57154478       4.80308075      -0.05444153       0.04086720       0.08051322       0.06834018      -0.20114839       0.25802344       0.04345639
C        8.72738462       7.44704725       7.77579575       0.06473426       0.05996951       0.09026019       0.96367491      -0.08875913      -0.27074871      -0.03920714
C       10.08256285       7.31467352       8.41211901      -1.07277712       0.33400355      -0.44807085      -4.57328818      -3.16769516       3.15289332       0.58676156
O       10.07937442       6.53295425       9.58969073       0.29986139       0.16189821       0.10338117      -0.70047593       1.12092569      -1.67269701      -0.54386385
O       11.04077512       7.77690664       7.99372083       0.68860948      -0.35596782       0.13355107       4.49947137       2.12131646      -1.77077272      -0.48624492
C        6.32687043       7.42982777       7.75842333       0.23781234       0.21791705       0.06116043       0.97325366      -0.14955142       0.22355319      -0.03444068
C        5.12485686       7.17535238       8.54512252       0.72801677      -0.40394839       0.11924537      -1.74945885       3.67620584      -5.15514304       0.59234399
O        4.02521602       7.81970989       7.95653539      -0.01322889      -0.42002428      -0.18417774       1.12965968      -0.39832803       0.01138395      -0.55032276
O        5.00956831       6.58313040       9.51067829      -0.71124574       0.10385436       0.12529953      -0.25756181      -3.15653002       4.96492941      -0.48626600
H        9.72212149       8.15371308       6.01253594       0.04741249       0.00063277      -0.04968283      -0.20310553      -0.07512991      -0.04122269       0.05918942
H        7.55382083       6.69775940       9.36692375      -0.13927851       0.05928060      -0.06261384      -0.13022673      -0.01654190       0.29743214       0.06912449
C        8.75444611       7.92828683       6.45953097      -0.20297400       0.01836714       0.08130825       0.59229923       0.07846776       0.39995538       0.00060842
C        7.53261853       7.14422294       8.38601046      -0.15489199       0.05948199      -0.06436679       0.35775572      -0.24439418       0.47140687       0.00570913
C        7.56971457       8.15418960       5.81389749       0.10713722      -0.26383324       0.23529252      -0.17967509       0.51727400      -0.62684331      -0.02298577
C        6.38043827       7.96133687       6.48875633       0.15549119       0.41818129      -0.23001311      -1.10341197       0.21542528      -0.84750428       0.00734982
H       10.96070366       6.57409845       9.96340791      -0.04504874       0.02712834       0.03421526       0.46807004      -0.05259317       0.16474085       0.37315547
H        3.22182102       7.62356973       8.44695433       0.05482919      -0.08702385      -0.02032994      -0.18535390      -0.10180977       0.28077189       0.37195923
18
Lattice="15.108652899924854 0.0 0.0 0.0 15.108652899924854 0.0 0.0 0.0 15.108652899924854" Properties=species:S:1:pos:R:3:momenta:R:3:forces:R:3:charge:R:1 energy=-1059.8187516239266 free_energy=-1059.8187516239266 dipole="-0.47488347590642727 0.14010654664153216 -0.36287572788727807" stress="0.0 0.0 0.0 0.0 0.0 0.0 0.0 0.0 0.0" pbc="T T T"
H        5.42726653       8.24285267       5.95481475      -0.06453732       0.04383882      -0.02277230       0.06120103      -0.04340692       0.13596793       0.05659096
H        7.58014245       8.57077198       4.80854259       0.11940895      -0.01944207      -0.04175856       0.01880368      -0.19793411       0.11405079       0.04412542
C        8.74627303       7.45269737       7.77567302       0.17041694       0.09203936       0.10837099      -0.18857523      -0.33189476       0.38244425      -0.02401156
C       10.02013883       7.28420910       8.45847099       1.17217819      -0.26858700       0.48659939       4.03325039       1.32279450      -1.61936839       0.56885785
O       10.07622189       6.57094991       9.55631950      -0.43992561       0.80259572      -0.70276894      -0.83653660      -0.33405891       0.65784356      -0.48922307
O       11.09094931       7.76538384       7.99615768      -0.35577592      -0.64255764       0.40626194      -2.74186495      -0.97771611       0.98942701      -0.56652423
C        6.36393036       7.44500353       7.74865000       0.25206341       0.18611921      -0.34408551      -1.03484152       0.01287891       0.05404799      -0.02676674
C        5.08830212       7.20863084       8.48115682      -1.20406659      -0.03025212       0.19526585       0.45887526      -2.35634097       4.03520753       0.56546749
O        4.04912138       7.77758012       7.94950497       0.34197969      -0.75217912      -0.02667880      -0.71345256       0.43971527      -0.80603035      -0.48412446
O        4.97648844       6.55588603       9.57303356      -0.14918810       0.16582155       0.10696409       0.73361368       2.10983878      -3.81172589      -0.56348971
H        9.69949753       8.12750719       5.96795308       0.06974459       0.01131423      -0.02273877       0.24356935       0.04136121       0.04824169       0.06668332
H        7.46528732       6.70540538       9.37719176       0.00715044       0.05448172      -0.03974054       0.24094030      -0.11057995       0.38254972       0.07630547
C        8.76910273       7.93706651       6.47686992       0.14686878       0.14846748       0.19715110      -0.57924880      -0.02398794      -0.31625103       0.00954411
C        7.53965269       7.14053339       8.39896986       0.40598137      -0.20384551       0.41409868       0.20706841       0.17966115      -0.27710638       0.00606157
C        7.56602924       8.14644602       5.81353894      -0.05693066       0.11036288      -0.40761771       0.17259512       0.73987754      -0.41948017      -0.02374249
C        6.35657803       7.99921623       6.46117424      -0.51981521       0.27043080      -0.16587688       0.03942823      -0.42469152       0.16625492       0.00049925
H       10.98251198       6.60157274       9.89002536       0.01290587       0.07082406      -0.19444314       0.27027964      -0.05943923       0.07045138       0.39045154
H        3.27518260       7.53193575       8.47027981       0.09154118      -0.03943235       0.05376910      -0.38510541       0.01392306       0.21347542       0.39329529
18
Lattice="15.108652899924854 0.0 0.0 0.0 15.108652899924854 0.0 0.0 0.0 15.108652899924854" Properties=species:S:1:pos:R:3:momenta:R:3:forces:R:3:charge:R:1 energy=-1059.889858427924 free_energy=-1059.889858427924 dipole="-0.32150554943018 0.043209429167731114 -0.21220330459146372" stress="0.0 0.0 0.0 0.0 0.0 0.0 0.0 0.0 0.0" pbc="T T T"
H        5.39849592       8.25304827       5.96884972      -0.03332220       0.01328042      -0.00209804       0.20598849      -0.08722381       0.07065542       0.05393818
H        7.61516487       8.51189435       4.75224051      -0.07558586       0.00968354      -0.07322169      -0.16871452      -0.00484610       0.42999212       0.04173440
C        8.76670124       7.43703242       7.79557891       0.26772117      -0.29938338       0.18516429      -0.29289321       0.47289291      -0.97794331      -0.04223830
C       10.10189311       7.29189339       8.43970727      -0.87391113      -0.20746614      -0.24774381      -3.34086290      -0.78589116       0.38714800       0.59034844
O       10.04816651       6.60568166       9.56678103      -0.09897525       0.22150713       1.03854387       0.16904994      -0.43558988       0.55887761      -0.50830943
O       11.09060631       7.73766525       8.00787931       1.69869123       0.35194162      -0.52131907       2.99151106       1.24569542      -1.31042801      -0.52572128
C        6.34140024       7.44714138       7.74541697      -0.58052542      -0.10136634       0.36924013       0.41086901      -0.23782647       0.70209751      -0.04719889
C        5.06949231       7.16943105       8.54553397       0.88961536       0.25184659      -0.73865022       1.27221014       2.81677334      -4.94312315       0.59429555
O        4.02681129       7.74071002       7.93809096      -0.96344494      -0.54097159      -0.25653397      -0.39327040       0.25743386      -0.33617670      -0.51913208
O        4.98019861       6.58626366       9.52921375       0.11133017      -0.33664754       0.35845948      -0.07071372      -2.69299093       4.44086469      -0.50458990
H        9.69820036       8.13356943       6.00710149       0.03179039       0.07008684      -0.02594161       0.51349334       0.12871882      -0.31737058       0.05802644
H        7.55086026       6.73263717       9.40948313       0.06975497       0.10376940      -0.10262704      -0.14579036      -0.09089281       0.14103248       0.06687015
C        8.75779380       7.94833261       6.47564847      -0.61980374       0.03232245      -0.10461476      -0.82715653      -0.36922193       0.57871853      -0.00451107
C        7.55817276       7.14203486       8.41159891      -0.12527701       0.22014296       0.05460647      -0.53740710       0.41809135      -0.70342327       0.00289786
C        7.56496710       8.17801014       5.79528808       0.15280136       0.39524542       0.03036769       0.09391701       0.07974377       0.15836407      -0.02429641
C        6.34190185       8.00543312       6.45347597       0.31872047      -0.15923622       0.03575116       0.29995480      -0.48782450       0.42079090       0.00315528
H       10.97972133       6.53958746       9.81005669      -0.02344595      -0.18474096       0.11814465       0.25870533      -0.23555613       0.62149346       0.38438744
H        3.25661929       7.56863746       8.49102863      -0.14613362       0.15998579      -0.11752753      -0.43889038       0.00851423       0.07843022       0.38034363
18
Lattice="15.108652899924854 0.0 0.0 0.0 15.108652899924854 0.0 0.0 0.0 15.108652899924854" Properties=species:S:1:pos:R:3:momenta:R:3:forces:R:3:charge:R:1 energy=-1059.9010162383981 free_energy=-1059.9010162383981 dipole="-0.3477343375623968 0.08715548136779334 -0.38180776577367237" stress="0.0 0.0 0.0 0.0 0.0 0.0 0.0 0.0 0.0" pbc="T T T"
H        5.44123542       8.22010391       5.97825317      -0.04161657      -0.05960969      -0.02784775      -0.30488304      -0.00396811      -0.06771671       0.05590517
H        7.55871691       8.58131257       4.77930927       0.00383608       0.16024540      -0.01756932       0.03940137      -0.10603347       0.52582843       0.04745158
C        8.75214254       7.43662359       7.76676933      -0.45038753       0.14908578      -0.51152835       0.42432235      -0.07081948       0.51297574      -0.02632048
C       10.09225227       7.28344230       8.41945632       1.60312862       0.38453139      -0.08994522       2.09095092       0.42757096       0.56548686       0.57114757
O       10.04548071       6.61283450       9.62077355      -0.19676526       0.26751985       0.44558878      -0.49173380       0.47644498      -1.43014945      -0.51576557
O       11.15127716       7.75252788       7.98017802      -0.61136961      -0.28667406      -0.00625156      -2.59260855      -1.27497289       0.88471174      -0.52581655
C        6.33939493       7.44308106       7.76969288       0.59744863       0.14528140      -0.25324957       0.28360357       0.39028708      -0.85685752      -0.02346549
C        5.10011573       7.19967566       8.48254015      -0.96415508      -0.38341193       0.64919493      -2.27171358      -1.80228946       3.39007766       0.56857664
O        3.98211113       7.71862148       7.91991900      -0.28486001      -0.34553853      -0.44668697       1.32208754       0.17737784      -0.61491239      -0.51155337
O        4.99634933       6.55659054       9.55934438       0.50803686       0.35586585      -0.73954769       0.65374128       1.83438236      -3.02377796      -0.54418719
H        9.65408947       8.16500790       5.97996804       0.06636827      -0.02010215      -0.03193880       0.56592823       0.02236648      -0.09360571       0.06109499
H        7.54175053       6.76043059       9.38989259      -0.10555268       0.00814618      -0.08634668      -0.07968955      -0.12818741       0.30276892       0.07429322
C        8.73556694       7.94301565       6.48557784       0.02726062      -0.12508266       0.11551315       0.18376667       0.37061834      -0.81219143       0.00645133
C        7.53628519       7.16516998       8.39201972      -0.14996705       0.18394777       0.00449226       0.75320127      -0.24141983       0.56735554       0.01355541
C        7.55627431       8.20824508       5.81271037      -0.40335849       0.23218374       0.50634311      -0.18201589      -0.03577901      -0.19715069      -0.02305436
C        6.36749503       7.97954004       6.47234283       0.26427932      -0.47389801       0.34715477      -0.44192263      -0.00355778       0.00377084       0.00182946
H       10.91298862       6.39112635       9.98278585       0.02928984      -0.04152407       0.09757346       0.23068223       0.29013303      -0.16827320       0.38302676
H        3.18469238       7.59494153       8.43630782       0.10838403      -0.15096627       0.04505145      -0.18311838      -0.32215365       0.51165933       0.38683089
18
Lattice="15.108652899924854 0.0 0.0 0.0 15.108652899924854 0.0 0.0 0.0 15.108652899924854" Properties=species:S:1:pos:R:3:momenta:R:3:forces:R:3:charge:R:1 energy=-1059.9980341757944 free_energy=-1059.9980341757944 dipole="-0.45043529779750063 0.01513369367960757 -0.11107134877818178" stress="0.0 0.0 0.0 0.0 0.0 0.0 0.0 0.0 0.0" pbc="T T T"
H        5.39194912       8.18367416       6.02282186      -0.13409578       0.01098486      -0.03565335      -0.05775391       0.05038953      -0.28996144       0.05192547
H        7.55525898       8.70697322       4.86595602      -0.01761685       0.14474669      -0.04961585      -0.08950186      -0.26944628       0.21952507       0.03848845
C        8.76088068       7.42751135       7.77365815       0.54291473      -0.20090809       0.59817168       0.61097170       0.20922986      -0.04307095      -0.03886876
C       10.13072603       7.27810269       8.44879767      -1.36359481      -0.64246120       0.68340141      -1.25399436       0.40706040      -0.94993695       0.58231807
O       10.04372940       6.64315533       9.60942285       0.04918994       0.73268562      -0.64491199       0.26977479      -0.16564608       0.07591854      -0.49918481
O       11.13826593       7.72878817       7.96472354       0.86375006      -0.13794328      -0.54463526      -0.12224597      -0.38132635       0.39379934      -0.52916789
C        6.35040854       7.45479356       7.75461322      -0.59322647      -0.13357543       0.13138603      -0.85609470      -0.62328165       1.04247896      -0.04445199
C        5.02462658       7.17365857       8.51280241       0.05543163       0.38618816      -1.22552779       2.80689668       1.12936494      -2.41552009       0.58659869
O        3.98192318       7.69746294       7.89733253      -0.15828433      -0.46215050      -0.05047624       0.00320096       0.00312192      -0.05166098      -0.50159912
O        5.03253695       6.57630545       9.52705903       0.39200196      -0.34842268       0.78512714      -0.71797939      -0.98989449       1.85201683      -0.51774090
H        9.68659198       8.13541898       6.00964481       0.08461585       0.06059929      -0.03167271       0.79795708       0.30691544      -0.58093124       0.06054068
H        7.48542093       6.76960811       9.40544057       0.03734374       0.09705114      -0.05645124       0.18656826      -0.13382175       0.46616589       0.06704786
C        8.75068403       7.95690728       6.46421786       0.13020831       0.29630879      -0.39133618      -0.92149250      -0.47411067       1.33428058      -0.00515385
C        7.55005770       7.17288519       8.41556548       0.38598141      -0.01073944       0.59231243      -0.04858894       0.17500565      -0.56441249       0.00252528
C        7.53799467       8.22950593       5.85242605       0.22311883       0.15923938       0.44178502       0.89175902       0.43121264      -1.06941111      -0.02162877
C        6.34648469       7.95427258       6.47011535      -0.53674755      -0.13241889      -0.12702435      -0.54508785       0.27285470       0.22739083      -0.00340785
H       10.93114223       6.50569426       9.97547181       0.10177483       0.17555892       0.00851302       0.05538085       0.07740006       0.08765821       0.38350075
H        3.24629174       7.49765453       8.47070737      -0.06276551       0.00525664      -0.08339177      -1.00976986      -0.02502787       0.26567102       0.38825868
18
Lattice="15.108652899924854 0.0 0.0 0.0 15.108652899924854 0.0 0.0 0.0 15.108652899924854" Properties=species:S:1:pos:R:3:momenta:R:3:forces:R:3:charge:R:1 energy=-1059.9603291160288 free_energy=-1059.9603291160288 dipole="-0.4051932508024583 0.1997551346390918 -0.3179365721521697" stress="0.0 0.0 0.0 0.0 0.0 0.0 0.0 0.0 0.0" pbc="T T T"
H        5.39394618       8.19889643       5.94137582      -0.05563538      -0.00931296      -0.10764764      -0.10222205      -0.09777113       0.12442069       0.05981207
H        7.53600136       8.76501804       4.87957549      -0.04621059       0.06198902      -0.10182309       0.13093764      -0.50148012       0.53544070       0.04350866
C        8.79266879       7.43104808       7.79414887      -0.27021867       0.34804779      -0.25838650      -1.76579082       0.40190953      -1.18677723      -0.03165831
C       10.08772540       7.28137452       8.41709273       0.67774702       0.61835134      -1.16595712       1.16831635      -0.07178418       0.53333961       0.58155288
O       10.04850873       6.67218280       9.60102546       0.03883771       0.23533260       0.51122118       0.09416431      -0.08492461       0.51872090      -0.50646919
O       11.13614396       7.68081957       7.96615557      -0.93642404      -1.29082702       0.51394438      -0.23767381       0.03896078      -0.20774163      -0.53994345
C        6.31158439       7.43521156       7.77465750       0.26646956      -0.26049547      -0.07200619       2.01300958       0.17608541      -0.72728498      -0.02772361
C        5.07981927       7.17162643       8.47438644       0.52570815      -0.77664769       0.93206450      -1.62780001      -0.70585625       2.09520185       0.57589158
O        3.95953215       7.68171439       7.88877092      -0.17207546      -0.10422771      -0.30195556       1.25954674      -0.12649088      -0.29906466      -0.51960285
O        5.03785209       6.57177957       9.54226582      -0.23101748       0.31534020      -0.82894645      -0.20171967       0.71437800      -1.32503456      -0.53405279
H        9.65974820       8.19782639       5.96379220      -0.06559552       0.06529692      -0.06881053       1.05397815       0.16813050      -0.31105585       0.06438684
H        7.57842739       6.84980213       9.45336443       0.05929115       0.11189222      -0.06096823      -0.17849067      -0.21065499       0.27595038       0.07484689
C        8.77393662       7.96344454       6.48475158       0.13740204      -0.02103750       0.75992090      -1.95149474      -0.02891914       0.30468331       0.00409922
C        7.56603375       7.17968208       8.43091357      -0.01673447       0.23401572      -0.11006473      -0.46873786       0.46475453      -1.00595471       0.01251458
C        7.55675825       8.24598629       5.85628688      -0.00019557       0.07150051       0.13122073      -0.78090729      -0.03874764       0.24237413      -0.02791248
C        6.30259989       7.95254929       6.47183024       0.17697781       0.22242037       0.15906350       1.90689614       0.31800155      -0.03101233       0.00346570
H       10.94555708       6.72287741       9.98111370       0.05332571       0.21230631       0.06028781      -0.14957634      -0.16041919      -0.01215731       0.38325170
H        3.14882428       7.49437578       8.36529345      -0.14165196      -0.03394467       0.00884304      -0.16243565      -0.25517216       0.47595170       0.38403255
18
Lattice="15.108652899924854 0.0 0.0 0.0 15.108652899924854 0.0 0.0 0.0 15.108652899924854" Properties=species:S:1:pos:R:3:momenta:R:3:forces:R:3:charge:R:1 energy=-1060.0752297346396 free_energy=-1060.0752297346396 dipole="-0.45854674596069034 0.17576707071979983 -0.21110668301594815" stress="0.0 0.0 0.0 0.0 0.0 0.0 0.0 0.0 0.0" pbc="T T T"
H        5.42449749       8.13028586       6.00099022      -0.02133905      -0.04885323       0.08646532      -0.75186999       0.24576167      -0.43264011       0.05826337
H        7.54419208       8.67704033       4.86821449       0.06719959      -0.04698188      -0.15165614      -0.05351676      -0.06329700       0.25183710       0.04113658
C        8.74670367       7.45772027       7.75874500      -0.31497260       0.28826854      -0.31186417       0.91803931      -0.17504622       0.75676417      -0.02923331
C       10.07324674       7.27669332       8.41672121      -0.75399427      -0.62779621       1.02010352       1.56627601       0.16097953       0.16324541       0.57323091
O       10.04582721       6.69484681       9.62988366      -0.26942535       0.46406937       0.29018796      -0.01477002       0.30080274       0.09277641      -0.50627028
O       11.14835335       7.64079824       7.95898803       0.98251906      -0.20985511      -0.89660978      -1.46123545      -0.23249548       0.11356354      -0.53760711
C        6.37017749       7.41900970       7.75362831       0.53655621      -0.34181945      -0.08791104      -1.71470026       0.14377356       0.68850496      -0.03166954
C        5.07481458       7.15713576       8.49548253      -0.39797351       0.64853863      -1.17963554       0.20649552       0.39682706      -0.84812314       0.57819464
O        3.97742401       7.66218884       7.87479863       0.73621647      -0.53750662      -0.04964933       0.79624309      -0.35329701       0.28529386      -0.51486183
O        5.02075374       6.56861392       9.53474966      -0.44303611      -0.48499470       0.96044018      -0.17275982      -0.14901881       0.32317185      -0.51752367
H        9.68135443       8.16924343       6.02875496       0.05969484      -0.12832565       0.21362187       0.82156667       0.27305871      -0.60570744       0.06438906
H        7.55833474       6.83202356       9.42697539      -0.00659178      -0.02709750      -0.12038405      -0.05962797      -0.07491126       0.05135176       0.07053827
C        8.74913354       7.98410572       6.48839986      -0.63240804       0.65432350      -0.62713135      -0.85521728       0.03792075      -0.01265884       0.00068802
C        7.55087330       7.20649487       8.41060860      -0.23473597       0.15524579       0.10605928       0.54792020      -0.45794212       0.69426475       0.00685924
C        7.53384115       8.25613553       5.87876923      -0.16987561       0.09781587       0.27914766       1.03447483       0.45771669      -1.48429955      -0.02143161
C        6.35231444       7.97563756       6.48783989       0.81708258       0.34265275       0.22884280      -0.15178322      -0.32747059       0.29439776      -0.00072000
H       10.93196330       6.79643102      10.04944695       0.02659041      -0.06671943       0.07114326      -0.50447874      -0.20162787      -0.39786254       0.38242126
H        3.20390002       7.41806327       8.40241726       0.01849313      -0.13096469       0.16882955      -0.15105611       0.01826565       0.06612006       0.38359600
18
Lattice="15.108652899924854 0.0 0.0 0.0 15.108652899924854 0.0 0.0 0.0 15.108652899924854" Properties=species:S:1:pos:R:3:momenta:R:3:forces:R:3:charge:R:1 energy=-1060.1433558273698 free_energy=-1060.1433558273698 dipole="-0.32437403732769415 0.14528279490631799 -0.19426779840928812" stress="0.0 0.0 0.0 0.0 0.0 0.0 0.0 0.0 0.0" pbc="T T T"
H        5.42368752       8.19896785       6.03360857       0.05545529       0.15818934       0.02926630      -0.38889226       0.12301790      -0.27950578       0.05396088
H        7.53226266       8.70259710       4.82486125      -0.07655517       0.15126184      -0.24136939      -0.03498241      -0.09542028       0.33818265       0.04394154
C        8.74998265       7.48322518       7.77220989       0.43738930       0.18960548       0.45872215       0.49446597      -0.15293615       0.31768271      -0.04034315
C       10.10385179       7.26870304       8.44899712       0.78483063       0.35353256      -0.42190882      -1.66216010       0.24282083      -0.61065810       0.58319666
O       10.02076833       6.71965449       9.65634342      -0.52737436       0.34632917       0.62943275       0.39584096       0.02083308       0.19536501      -0.50101345
O       11.12696462       7.59874118       7.93055987      -1.25684956      -0.92896099       0.08166696       0.83225820       0.09780173      -0.14258345      -0.52758838
C        6.34279165       7.41200361       7.76543396      -0.67985331       0.20035743       0.17456459       0.75094572       0.43251987       0.29095268      -0.03552888
C        5.07744522       7.15866542       8.48480275       0.32111613      -0.83812391       1.17333351       0.50813440      -0.52028383       0.36357886       0.57985364
O        4.01039148       7.63252134       7.86355245       0.48182409      -0.46075465      -0.48391470      -0.85816696      -0.04779734       0.21271191      -0.50183287
O        5.00089458       6.56311044       9.53370764      -0.15632913       0.44193136      -0.98452078       0.03747944       0.15000965      -0.12658345      -0.53897835
H        9.68656814       8.18440007       6.01707632      -0.11759517       0.12749547      -0.23899425       0.75111735       0.24897272      -0.52771153       0.06125679