18
Lattice="15.099991252438835 0.0 0.0 0.0 15.099991252438835 0.0 0.0 0.0 15.099991252438835" Properties=species:S:1:pos:R:3:momenta:R:3:forces:R:3:charge:R:1 energy=-1059.3133309515088 free_energy=-1059.3133309515088 dipole="-0.8846153237053465 0.7485487542979873 -0.38990882983938624" stress="0.0 0.0 0.0 0.0 0.0 0.0 0.0 0.0 0.0" pbc="T T T"
H        9.70793264       6.95080685       9.12218028       0.20907068       0.16130155       0.13777856      -0.11628180       0.03377310      -0.04667786       0.06813145
C        8.75989986       7.67952382       7.33625018       0.19118081      -0.81748368      -0.62322100      -0.61218292       0.08345296       0.09955011      -0.05103673
C       10.05431785       7.85239938       6.61898573       0.67357919      -0.46960284       0.51694411       3.07828522      -3.51801977       3.90294395       0.57498164
H        7.54827439       6.57508920      10.33089401      -0.10986509      -0.07542889      -0.14777107      -0.00289685       0.01283003      -0.15468681       0.04749553
O       10.05918583       8.58252272       5.56702072      -0.01515703       1.16073163       1.20347753       0.57774284       0.98222538      -1.60184742      -0.45856642
C        6.34043134       7.68071383       7.33595326       0.13818504      -0.83967956       0.07458193       0.45681913       0.23323087      -0.18812326      -0.02240604
C        5.04769294       7.85337302       6.61653733      -0.11690828      -0.62232087      -0.00713775      -2.75257268      -3.47034237       3.97655537       0.57073395
O        5.04401430       8.58306364       5.56421210      -0.10798097      -1.16454869       0.99004840      -0.23384532       0.85003622      -1.37556519      -0.47730025
O        4.04382003       7.23619215       7.10526479      -0.90154555       1.63243636      -0.63308439       2.75495470       2.33630389      -2.15788338      -0.56239199
O       11.05848231       7.23651670       7.10872349      -0.11177153      -0.00223295      -0.01947973      -3.12255471       2.46866152      -2.23449560      -0.53856667
C        8.75521554       7.16944358       8.64530995       1.31787997      -0.35883500      -0.71266328      -0.26506360       0.05272409      -0.15497353       0.01382454
H        5.38937001       6.94994139       9.11953743       0.05749429       0.56265794      -0.12997474       0.12375693       0.03791768      -0.04085842       0.06739213
H        7.54941401       8.36929512       5.68318657      -0.15280234      -0.23877329      -0.01130326      -0.12029426      -0.06505352       0.04302411       0.03835115
C        7.55033911       7.96837096       6.69378831      -0.58262841       1.08002582      -0.49030308       0.01118928      -0.21823518       0.45511476      -0.02512088
C        7.54876061       6.94301771       9.30758709      -0.83011735       0.12619193      -0.10138923      -0.00597784       0.11659619      -0.35295634      -0.02198188
C        6.34277924       7.16965994       8.64449876       0.30443165       0.43836225      -0.07790458       0.22900402       0.05698493      -0.17296773       0.00880900
H        9.20652115       8.98846145       5.35446876      -0.04055617      -0.14548912      -0.32406468       0.00146339       0.00588530       0.00458359       0.37011285
H        4.15070164       8.60157896       5.17667327       0.07751110      -0.42731260       0.35546625      -0.00154553       0.00102867      -0.00073635       0.39753863
18
Lattice="15.099991252438835 0.0 0.0 0.0 15.099991252438835 0.0 0.0 0.0 15.099991252438835" Properties=species:S:1:pos:R:3:momenta:R:3:forces:R:3:charge:R:1 energy=-1058.9537959955849 free_energy=-1058.9537959955849 dipole="-0.7833998613998919 0.10226085792125464 -0.038626248146195384" stress="0.0 0.0 0.0 0.0 0.0 0.0 0.0 0.0 0.0" pbc="T T T"
H        9.69243722       6.99718055       9.17804198       0.09581723      -0.08162831       0.15047663       0.06031196      -0.22948357      -0.20726674       0.06668599
C        8.75650240       7.63770576       7.30343581      -0.44147928      -0.16403326      -0.22580567      -0.45702319       0.21238347       1.01789751      -0.05363181
C       10.10654572       7.80037389       6.70260092      -1.13932373       0.29704926       0.06507849      -3.44362237       2.62315751      -2.65066026       0.59231237
H        7.48283320       6.47868462      10.27695873       0.11967490       0.03731288      -0.10798641       0.15971431       0.52948822      -0.27592308       0.04607336
O       10.08530347       8.66491745       5.59879296       1.05333163       1.19837516       0.51347281       0.54596943      -0.90846102       0.78936506      -0.53041577
C        6.36264228       7.62636428       7.31157875       0.41687574      -0.35841798      -0.73117109       0.21585163       0.52934697      -0.05248237      -0.03135980
C        5.04189553       7.75146778       6.70180212       1.34328092      -0.72901450       0.72239521       2.96542803       2.80863401      -2.18481365       0.58529628
O        5.02579205       8.52659293       5.59688913      -0.67861401      -1.04821508       0.06312683       0.40662165      -0.15139629      -0.90983731      -0.53401076
O        4.01308284       7.35633539       7.04218037      -1.94915180       1.21517540      -0.36577299      -3.96691206      -2.81081497       2.69625805      -0.51285215
O       11.05738711       7.27669154       7.08969306       1.35808361       0.08503349       0.02764506       3.22086272      -1.41141969       1.10130457      -0.46501031
C        8.76540494       7.13158561       8.63792254      -1.14500152      -0.20435874       0.26271707      -1.56534077       0.47087319      -0.72031634       0.00575463
H        5.39106786       7.34145370       9.13569144       0.35085250      -0.00921870       0.03133622       0.20778406      -0.93519519       0.00470881       0.06414884
H        7.41354403       8.22196294       5.61565635       0.00901350      -0.04402203       0.18100675       0.54190353       0.35398686       0.15474061       0.05358838
C        7.54504262       8.00338336       6.67413413       0.62547721      -0.29040733      -0.44371693       0.17553001      -1.86215969       0.03614293      -0.01055785
C        7.52692037       6.94697975       9.28256193       0.51065880       0.08583076      -0.42110128       0.93400767      -0.60517776       0.38264516      -0.01700126
C        6.34349084       7.19241346       8.61718560      -0.95325116       0.19849647       0.21586743      -0.13746581       0.64138463       1.03964731      -0.00116979
H        9.21468209       8.82390999       5.20836979       0.08918550      -0.16139245       0.07166546       0.05450943       0.00109831       0.28552165       0.35535749
H        4.12570924       8.29882190       5.29272410       0.33456995      -0.02656502      -0.00923360       0.08186978       0.74375499      -0.50693192       0.38679216
18
Lattice="15.099991252438835 0.0 0.0 0.0 15.099991252438835 0.0 0.0 0.0 15.099991252438835" Properties=species:S:1:pos:R:3:momenta:R:3:forces:R:3:charge:R:1 energy=-1059.1834426680734 free_energy=-1059.1834426680734 dipole="-0.7325508676286014 0.3084355580174495 -0.3493701998952277" stress="0.0 0.0 0.0 0.0 0.0 0.0 0.0 0.0 0.0" pbc="T T T"
H        9.61916406       6.83608278       9.07507612       0.11558443      -0.22846796      -0.02462831       0.64072351      -0.01981583       0.29604231       0.06711045
C        8.74272325       7.63385467       7.31524237       0.31790508      -0.09716834       0.33382566       0.90085775       0.27401106      -0.38289118      -0.04629854
C       10.06945054       7.84805016       6.65760517       1.66500601       0.03532280      -0.07560580       2.65218376      -1.72789776       2.19751069       0.57617733
H        7.65547555       6.56365900      10.28986235       0.07714596       0.08031386       0.00117537      -0.69217697       0.19932862      -0.58757782       0.04493707
O       10.16076200       8.70282010       5.67497703       0.75878320       0.58272702       1.38357107      -0.45142526       0.48558832      -1.26141995      -0.47462209
C        6.39714982       7.59942920       7.30345226      -0.00489216      -0.48072115       0.43651972      -1.91308815       0.67325617      -0.01291495      -0.02336200
C        5.04187812       7.76960328       6.69559550      -2.52299935       0.65159647      -0.51998284      -3.21565218      -0.26624613       0.00176905       0.57068723
O        5.02455751       8.46092462       5.57211461       0.24301292      -0.90353435      -1.27636036       1.96597497       0.70048155      -1.11615958      -0.50794798
O        3.92427803       7.38910442       7.08395490       0.25439698       0.21888717       1.04286724       2.80841813      -0.05935843       0.49898447      -0.54216849
O       11.08273906       7.28712415       7.08968769      -1.37284376       0.65212376      -0.47355246      -1.96699538       0.94927658      -0.62435012      -0.51688112
C        8.69980808       7.13315240       8.62371210      -0.25251302       0.05863457      -1.01164188       1.53696745       0.00947260      -1.75316286       0.00834978
H        5.36625494       7.08448478       9.20398979       0.25352956      -0.45645387      -0.21568096       0.94544467       0.18278630      -0.95697620       0.06651646
H        7.55018858       8.41472123       5.65992230       0.20790910       0.17240398       0.28593316       0.03966136      -0.43477640       0.23780729       0.04559013
C        7.59086831       7.92927619       6.64131351       0.29883948      -0.86503903      -0.95184887      -1.35474575      -0.05374427       0.07629054      -0.01297176
C        7.53619349       6.92392904       9.24683473      -0.58321612      -0.45770208       0.30139258      -1.06687822      -0.29113676       2.43563962      -0.01687914
C        6.32773286       7.23456674       8.63753290       0.03214098       0.49475650       0.67401005      -0.20091996      -0.91585743       0.83622012       0.00726772
H        9.32584209       8.80064533       5.19176274       0.23748336       0.20373827       0.01312693       0.08681770       0.31838479       0.06535633       0.36482204
H        4.17847165       8.42386080       5.12616747       0.27472734       0.33858239       0.07687970      -0.71516745      -0.02375300       0.04983223       0.38967292
18
Lattice="15.099991252438835 0.0 0.0 0.0 15.099991252438835 0.0 0.0 0.0 15.099991252438835" Properties=species:S:1:pos:R:3:momenta:R:3:forces:R:3:charge:R:1 energy=-1059.0755538622216 free_energy=-1059.0755538622216 dipole="-0.9256047599417738 0.5381439953182902 -0.30636703111612107" stress="0.0 0.0 0.0 0.0 0.0 0.0 0.0 0.0 0.0" pbc="T T T"
H        9.60963626       6.79431004       9.01626870       0.32141482       0.09623357       0.06142467       1.50641129      -0.26138040       0.77700789       0.06419534
C        8.79738410       7.65566352       7.29090269       0.61813150       0.56931283      -0.79498443      -2.25198109      -0.54728394      -0.13015219      -0.05072569
C       10.11235653       7.85266954       6.67172979      -1.03736814       0.27065014       0.33984461       0.86525710      -0.19839590       0.72320325       0.58960602
H        7.49950631       6.63144576      10.35729712      -0.11840352       0.03245261       0.09613440       0.34724907      -0.13694039      -0.75566076       0.04638316
O       10.20436426       8.77771912       5.73293588       0.71548165       1.56712231       0.33751758      -0.34845580       0.47308806      -1.06651651      -0.48625297
C        6.33389551       7.59565318       7.30239489      -1.64835217       0.55783763      -0.82150028       0.07852952       0.63839032      -0.10193112      -0.04040869
C        4.92412331       7.81662551       6.65495217       1.05598030       0.66562453      -0.37522865       2.55375561      -0.78166602       0.43316741       0.58059003
O        5.05807115       8.44665013       5.46821228      -0.01495840      -0.02011112      -1.95455520       1.01296367      -0.65429027       1.57653284      -0.51343190
O        3.92614523       7.38075700       7.15757464      -1.03005271      -0.28384102       1.38788476       0.09301858       0.70022874      -0.61308317      -0.50317383
O       11.07532659       7.26961316       7.09456107       1.64428527      -1.32563811       0.81389506       0.13691311       0.01747707      -0.19686854      -0.50727119
C        8.72859198       7.11574497       8.56019477       0.17988396      -0.47562232      -0.46516718      -1.74669968      -0.29756543       1.01389577       0.00655464
H        5.33351731       6.77588211       9.01327640       0.09691855       0.11077659      -0.15432299       1.32622748       1.13480980       0.12150458       0.06261950
H        7.57014123       8.46640914       5.68029034      -0.12956320      -0.25282112       0.11768540      -0.19771746      -1.15697172       0.80871550       0.03448064
C        7.56765762       7.85747677       6.63471496      -0.92255513      -0.45588540       0.47089018      -1.13428088       1.55421356      -0.04317889      -0.01257615
C        7.51706774       6.89942789       9.28588922       0.47811975      -0.16527684       0.42426643       1.27065280       0.65118545       0.08585976      -0.01714401
C        6.33535132       7.20747534       8.67854591      -0.54495308      -1.33417590       0.01744463      -1.97356104      -1.50999579      -1.99540258      -0.00524950
H        9.35503175       9.06163304       5.33835945       0.07792279       0.21148364       0.41682168       0.39888980      -0.09062822       0.34710943       0.36251441
H        4.20045465       8.66359438       5.18248408       0.25806776       0.23187798       0.08194931      -1.93717206       0.46572508      -0.98420266       0.38929020
18
Lattice="15.099991252438835 0.0 0.0 0.0 15.099991252438835 0.0 0.0 0.0 15.099991252438835" Properties=species:S:1:pos:R:3:momenta:R:3:forces:R:3:charge:R:1 energy=-1058.9271484795563 free_energy=-1058.9271484795563 dipole="-0.8102894494594739 0.6072072783644609 -0.07866311824106197" stress="0.0 0.0 0.0 0.0 0.0 0.0 0.0 0.0 0.0" pbc="T T T"
H        9.67643829       6.99896371       9.00803111       0.09179783       0.19312952       0.14585564       1.93778494      -0.53465872       1.15605514       0.07050494
C        8.71816246       7.66956834       7.27333037      -2.07308956      -0.39762729       0.42419780       1.11703053      -1.50803492       1.26299370      -0.05583740
C       10.14309528       7.83783600       6.72429947       1.79222110      -0.18206346       0.80319512       0.40887783       0.76822527      -0.71883067       0.57414676
H        7.59388242       6.59042291      10.33962221       0.23864422      -0.12571075      -0.02544106      -0.21406152      -0.01267079      -0.62281645       0.04979921
O       10.23841688       8.86358340       5.75363172       0.35842218       0.75167941       0.78410408      -0.15128086      -1.67468101       1.48678389      -0.50882079
C        6.25710671       7.64248134       7.30736384       0.22486160      -0.02445277       0.61948350       1.46414590      -0.66783796       0.55934640      -0.02210071
C        4.97450502       7.82740808       6.63680779      -0.54339349      -0.19268092      -0.45456830      -1.81747921      -0.48250202      -0.19683228       0.57272439
O        5.05882778       8.43505222       5.38567497      -0.30013572      -0.14366518      -0.45727155       2.12524473      -1.53606506       2.82045579      -0.53055114
O        3.94719538       7.41506927       7.17383638       1.72568130       1.45167938      -0.60486379       1.44943033       1.30526226      -1.69865004      -0.51324089
O       11.10473481       7.21109457       7.13145320      -0.92297478      -0.11860946      -0.03802732      -2.04341256       1.45217195      -1.06025871      -0.47600426
C        8.74674456       7.06307326       8.57727261       0.18634577      -0.40767487       0.59538223      -2.68438791       1.61182393      -1.23989753       0.00267571
H        5.29815954       7.00739312       9.15877832       0.34003565       0.35899963       0.06728366       1.86096752      -0.04942872      -0.91236636       0.06085811
H        7.42534164       8.11183039       5.57799185      -0.01806829      -0.39052244      -0.07433527       0.27467715       0.06298630       1.34671748       0.04438098
C        7.48970130       7.85752312       6.68458984      -0.97209066       0.06778247       0.14510286       0.04255754       0.66562092      -2.77929546      -0.00249975
C        7.55913258       6.89655361       9.28382158      -0.20916049       0.08030674      -0.90123569      -1.03875017       0.02155591      -1.10984101      -0.02191570
C        6.30836849       7.10791231       8.59119623      -0.23426166      -1.05652828      -1.14045706      -0.52891185       0.20447798       2.37119973       0.01152680
H        9.38678737       9.30318650       5.57823108       0.28405340       0.22140419       0.17760135       0.30002350      -0.27050044       0.13927711       0.35618506
H        4.24583652       8.75762223       5.10507791       0.03111161      -0.08544593      -0.06600620      -2.50245589       0.64425513      -0.80404073       0.38816869
18
Lattice="15.099991252438835 0.0 0.0 0.0 15.099991252438835 0.0 0.0 0.0 15.099991252438835" Properties=species:S:1:pos:R:3:momenta:R:3:forces:R:3:charge:R:1 energy=-1058.9193084511417 free_energy=-1058.9193084511417 dipole="-0.715239761544018 0.6918183392845689 -0.2196897066730422" stress="0.0 0.0 0.0 0.0 0.0 0.0 0.0 0.0 0.0" pbc="T T T"
H        9.62007905       6.91751235       9.10929333      -0.12867715      -0.22150907       0.05497721       1.33112992      -0.31532167       0.55066387       0.06554658
C        8.67757956       7.62093617       7.34050471       1.42616469      -0.71872918       0.51571324       2.08983800       1.05119795      -2.50943528      -0.06263179
C       10.16222722       7.89877596       6.72198710      -1.51104574       1.25009133      -0.65487258      -0.91355105      -1.90344331       1.60819541       0.57693874
H        7.53942155       6.41998513      10.18133806      -0.44118463      -0.15880414      -0.10278757      -0.20025980       0.20853668       0.10951079       0.03952259
O       10.29278135       8.87646740       5.83948959       1.09477742      -0.31832290       2.01704009       0.89116008      -0.67092153       0.20926666      -0.47728785
C        6.27541057       7.59925559       7.30861917       0.10503705      -0.73508116      -1.08609591      -0.05676314       0.25228425      -1.71155764      -0.02292271
C        4.99306917       7.83389565       6.57382703       1.51046566       0.60555293      -0.73981200       0.76565692      -0.59184667       1.98922126       0.58427278
O        5.03702672       8.41867289       5.40351249      -0.38954845      -0.23802554       0.65879353       2.39439619      -0.04416412      -0.02272183      -0.50481672
O        3.98799693       7.52336910       7.14101385      -1.38666397       1.66796552       0.04755422      -1.62217445      -0.12482684      -0.05819855      -0.53376704
O       11.06711307       7.19209597       7.12897124      -0.18663934      -0.32375457       0.34575378      -1.22877169       1.36878897      -0.94417834      -0.49593988
C        8.72651888       7.06450293       8.59019050      -0.41736697       0.38515241      -0.25439069      -0.89100814       0.90678654      -0.60334561       0.00544938
H        5.44085486       6.98081837       9.29860655       0.04923456      -0.31714260      -0.13180218       0.82677650      -0.13000722      -1.72071715       0.05485021
H        7.49777798       7.99928157       5.52666655       0.07749327       0.26164675      -0.11954135      -0.15082567       0.39419561       1.63154675       0.04422842
C        7.45982318       7.86162487       6.65709362       0.56869881      -0.09368674      -0.62339415       2.02083216      -0.60469773      -1.33245510      -0.02376818
C        7.51807056       6.88911029       9.19893122      -0.56655356      -0.55390162      -0.85324203       0.35955132      -1.59511984       1.64203511      -0.02109925
C        6.32647558       7.05393000       8.56995571       0.14793631      -0.19635584       0.65834659      -2.33235850       0.77175834       2.21912153       0.00570217
H        9.54730801       9.45228087       5.77842982       0.23124014      -0.03410880       0.23665262      -0.95876378       0.57455190      -0.14546643       0.37096733
H        4.16147361       8.59256542       5.16252707      -0.18336811      -0.26098679       0.03110719      -2.32486487       0.45224870      -0.91148547       0.39475523
18
Lattice="15.099991252438835 0.0 0.0 0.0 15.099991252438835 0.0 0.0 0.0 15.099991252438835" Properties=species:S:1:pos:R:3:momenta:R:3:forces:R:3:charge:R:1 energy=-1058.7369990559773 free_energy=-1058.7369990559773 dipole="-0.719555331729338 0.45429326026275846 0.12081079752361666" stress="0.0 0.0 0.0 0.0 0.0 0.0 0.0 0.0 0.0" pbc="T T T"
H        9.58634312       6.71539340       9.10132546      -0.05210020       0.03469387      -0.05696254       0.53746893       0.28008483       0.09044864       0.06757293
C        8.79917062       7.61897746       7.25661331       0.58140501       0.33169193      -1.37549663      -4.52493003      -0.93738497       2.87330615      -0.04961195
C       10.08207413       7.86848286       6.77603736       0.06439229      -0.98390295       1.05944299       2.15491133       1.66070943      -1.78132085       0.59075426
H        7.33815042       6.43956603      10.23337882       0.23043343      -0.04233945       0.10886119       0.83031594      -0.02307928      -0.55807341       0.04844306
O       10.36748657       8.87774780       5.93515865       0.98251759       0.44216061       1.02811816       0.01148050      -0.25149640      -0.47011981      -0.50575549
C        6.33477494       7.54531269       7.22257317       1.28520540      -0.83189319      -0.51060160      -0.24680356      -0.06007800       1.78272639      -0.03173204
C        5.00937719       7.82812220       6.64010200      -0.91405282      -0.34948708       1.49567132      -0.69142602       0.66492692      -1.75515750       0.57332821
O        5.00272232       8.40045944       5.39328050      -0.18068795      -0.16493227      -0.69207236       3.43155696      -0.51752332       1.23649543      -0.53181389
O        3.92322592       7.62294258       7.11404061      -0.50127247       1.56313451      -0.22415145       0.34070048      -0.48816794       1.05034361      -0.52108565
O       11.00923606       7.23484075       7.11033118      -1.06370394       0.75109096      -0.30355096       2.53360642      -2.69132054       1.47244005      -0.49876965
C        8.70935527       7.07757094       8.59999918       0.05696407      -0.46205571      -0.00132467      -0.43628334      -0.29943005      -1.31273487       0.01008301
H        5.29847461       6.66581062       9.00811713      -0.09795574       0.02378253      -0.32186799       1.63137143       1.27182478      -0.63276173       0.06455617
H        7.50119349       8.45228721       5.68323805       0.05851671       0.54018487       0.07269473       0.30427548      -1.07462391       0.63923132       0.05170819
C        7.56482773       7.83042007       6.62068494       1.33715315      -0.35611068      -0.17952781      -0.21725806       1.63979474      -0.76570857      -0.00108326
C        7.48664433       6.79029257       9.19552132      -0.71791188      -1.27165822       0.67050881      -0.42252189       0.45346492       0.91818812      -0.01936477
C        6.28804743       7.10067324       8.58543132      -0.99868654       0.57705308      -0.84696103      -1.23112400      -1.43146125      -1.57742474       0.00410475
H        9.72493870       9.54902219       5.96144661       0.21508275       0.19802572       0.12391909      -1.34329718       1.46958308      -0.30092494       0.35962079
H        4.10892498       8.44590929       5.18143153      -0.28529884       0.00056146      -0.04669926      -2.66204340       0.33417694      -0.90895329       0.38904534
18
Lattice="15.099991252438835 0.0 0.0 0.0 15.099991252438835 0.0 0.0 0.0 15.099991252438835" Properties=species:S:1:pos:R:3:momenta:R:3:forces:R:3:charge:R:1 energy=-1058.8960499928494 free_energy=-1058.8960499928494 dipole="-0.6363113026827888 0.7067465131802687 -0.06120085838185879" stress="0.0 0.0 0.0 0.0 0.0 0.0 0.0 0.0 0.0" pbc="T T T"
H        9.64501251       6.83915659       9.01503328      -0.16122845       0.27846133      -0.18666715      -0.47262762      -0.09267999       0.05137656       0.06428008
C        8.72038310       7.58629695       7.25701405      -1.14172154      -1.20200963       1.18358594       2.58417058       0.05240431       1.24794710      -0.04259631
C       10.12080034       7.89612210       6.77331699       1.08063538       1.00964428      -0.35498237       1.77514847      -2.08732428       1.41080648       0.57907978
H        7.63145658       6.35327402      10.23676642       0.09477277      -0.10588997       0.01824932      -1.01924825       0.40326815      -0.83517701       0.04953423
O       10.39932978       8.92919553       6.01179475       0.56795094       1.03610722       1.14403653       0.07245398       0.51464743      -0.54630839      -0.48181597
C        6.38816245       7.50975097       7.21106358      -0.25186771       0.27304044      -0.01936593      -2.12750337       1.67949522      -1.51115205      -0.03082810
C        4.96909423       7.84923194       6.66133867      -0.03534440       0.84347220      -1.19579288       0.04998154       0.25688918      -1.70146705       0.57062125
O        5.00582520       8.36212138       5.39970280       0.36677563      -1.20961612       1.06587608       1.84790476      -0.28040879       0.64411594      -0.52327688
O        3.87237237       7.69752175       7.14508911      -0.57953178       0.91425386       1.22019479       1.25238856      -0.32872199       0.82787477      -0.51402539
O       11.04116338       7.16579421       7.13456850       0.93187470      -1.91704098       0.39227880      -1.43749437       0.84011893      -0.58478121      -0.51193528
C        8.66929213       7.02161646       8.55063189      -0.74693896      -0.92599464      -0.70596747      -0.47784376      -0.31982512       0.21527536      -0.00444518
H        5.22044939       6.89514319       8.87968356      -0.11620570       0.26967622       0.19021395       1.44278438       0.27846525      -0.18424254       0.06493481
H        7.58751549       8.54422991       5.72479717       0.11817071       0.02290279      -0.48951092       0.05646133      -0.51400670      -0.37551004       0.05206930
C        7.61764421       7.86951276       6.57283383      -0.60677931       0.84168427      -0.66822243      -3.40026610       0.74688014      -0.26911258      -0.00621785
C        7.45809319       6.75950220       9.21180205       0.08535573       0.51486430      -0.68650752       1.07622115       0.36052007      -0.47031348      -0.02239039
C        6.26796669       7.09336020       8.49382050       0.76748924      -1.04724273      -0.86898310       0.35051723      -1.92503260       2.37712145       0.00100437
H        9.82987525       9.69288016       6.05365032      -0.09216506       0.22693453       0.19875148      -0.56967857       0.26676274      -0.07738088       0.37203662
H        4.12142753       8.48973708       5.08065045      -0.28124219       0.17675263      -0.23718714      -1.00336994       0.14854806      -0.21907244       0.38397091
18
Lattice="15.099991252438835 0.0 0.0 0.0 15.099991252438835 0.0 0.0 0.0 15.099991252438835" Properties=species:S:1:pos:R:3:momenta:R:3:forces:R:3:charge:R:1 energy=-1058.7363463796446 free_energy=-1058.7363463796446 dipole="-0.6618959320634752 0.5780631461469911 -0.12643361866528946" stress="0.0 0.0 0.0 0.0 0.0 0.0 0.0 0.0 0.0" pbc="T T T"
H        9.61344499       6.89425728       9.06613585      -0.21328088      -0.19295758       0.03932847      -0.90211426      -0.48190805      -0.60334164       0.05143267
C        8.70880940       7.56713559       7.27813289       0.37120545       0.88986407      -1.12040915       0.53157397       1.34211892      -1.89832172      -0.07110155
C       10.22308219       7.85065703       6.81621769       0.23867871      -1.29962344       0.98897940      -4.02736493       2.54330515      -1.07325612       0.58545622
H        7.46448954       6.28189132      10.16122634      -0.37126606      -0.13323243       0.10760655      -0.04105967       0.64265988      -0.84904850       0.04118228
O       10.42161605       9.02866979       6.08349967       0.51060502       1.04432804       1.44175974      -0.62495597      -1.31529675       1.22911839      -0.51470527
C        6.31381571       7.59299150       7.15790114      -1.22286298       1.45522713      -0.58216012      -0.50610308      -0.51201782       1.46676490      -0.03540504
C        4.91553040       7.88701592       6.61116906      -0.66542388      -0.16315715       0.74890701       1.49454077      -0.80348255       2.05873828       0.58770915
O        5.02383613       8.32031973       5.40528912       0.28199571      -0.23046447      -0.92540539      -0.84325718       0.86930773      -2.14081739      -0.48885120
O        3.89231077       7.75280470       7.23023964       1.15215103       1.27784942       1.39772560       0.12781854       0.01627686      -0.18283355      -0.53177864
O       11.05608125       7.10527532       7.11418649       0.06273290      -0.67458605      -0.79321498       2.35755366      -1.53278386       0.43319460      -0.45376685
C        8.64406935       6.94282601       8.49802232       0.99787273      -0.54970829      -0.58015388       3.15483541       1.11703016       0.47906369       0.00408280