18
Lattice="15.099991252438835 0.0 0.0 0.0 15.099991252438835 0.0 0.0 0.0 15.099991252438835" Properties=species:S:1:pos:R:3:momenta:R:3:forces:R:3:charge:R:1 energy=-1059.3133309515088 free_energy=-1059.3133309515088 dipole="-0.8846153237053465 0.7485487542979873 -0.38990882983938624" stress="0.0 0.0 0.0 0.0 0.0 0.0 0.0 0.0 0.0" pbc="T T T"
H        9.70793264       6.95080685       9.12218028       0.37164112      -0.03653960      -0.05810185      -0.11628180       0.03377310      -0.04667786       0.06813145
C        8.75989986       7.67952382       7.33625018      -0.92922825       2.18332855       0.26324240      -0.61218292       0.08345296       0.09955011      -0.05103673
C       10.05431785       7.85239938       6.61898573      -0.30967276       0.38156480       0.46150971       3.07828522      -3.51801977       3.90294395       0.57498164
H        7.54827439       6.57508920      10.33089401      -0.14745340       0.20712998      -0.06667696      -0.00289685       0.01283003      -0.15468681       0.04749553
O       10.05918583       8.58252272       5.56702072       0.95832445      -1.09989767      -0.06421590       0.57774284       0.98222538      -1.60184742      -0.45856642
C        6.34043134       7.68071383       7.33595326      -0.18520277       0.03719631       0.70028951       0.45681913       0.23323087      -0.18812326      -0.02240604
C        5.04769294       7.85337302       6.61653733      -0.50869759      -0.75171108       0.16669360      -2.75257268      -3.47034237       3.97655537       0.57073395
O        5.04401430       8.58306364       5.56421210       0.19949915       0.77613987      -0.37105291      -0.23384532       0.85003622      -1.37556519      -0.47730025
O        4.04382003       7.23619215       7.10526479       0.05558995      -0.02016984      -0.19462457       2.75495470       2.33630389      -2.15788338      -0.56239199
O       11.05848231       7.23651670       7.10872349      -0.68425614      -0.42633011      -0.04272028      -3.12255471       2.46866152      -2.23449560      -0.53856667
C        8.75521554       7.16944358       8.64530995       1.00652363      -0.30597781      -0.04403179      -0.26506360       0.05272409      -0.15497353       0.01382454
H        5.38937001       6.94994139       9.11953743       0.11223517       0.04100970      -0.40030752       0.12375693       0.03791768      -0.04085842       0.06739213
H        7.54941401       8.36929512       5.68318657       0.18251778      -0.00486960      -0.23072706      -0.12029426      -0.06505352       0.04302411       0.03835115
C        7.55033911       7.96837096       6.69378831      -0.70715457      -0.51037831       0.45367143       0.01118928      -0.21823518       0.45511476      -0.02512088
C        7.54876061       6.94301771       9.30758709       0.23892914       0.24839270      -0.85731720      -0.00597784       0.11659619      -0.35295634      -0.02198188
C        6.34277924       7.16965994       8.64449876       0.60840988      -0.69477306       0.04501188       0.22900402       0.05698493      -0.17296773       0.00880900
H        9.20652115       8.98846145       5.35446876      -0.42272966      -0.03520073       0.19798435       0.00146339       0.00588530       0.00458359       0.37011285
H        4.15070164       8.60157896       5.17667327       0.16072488       0.01108591       0.04137315      -0.00154553       0.00102867      -0.00073635       0.39753863
18
Lattice="15.099991252438835 0.0 0.0 0.0 15.099991252438835 0.0 0.0 0.0 15.099991252438835" Properties=species:S:1:pos:R:3:momenta:R:3:forces:R:3:charge:R:1 energy=-1059.0367739623491 free_energy=-1059.0367739623491 dipole="-0.846996871142579 0.35951144850886196 0.09560262681299099" stress="0.0 0.0 0.0 0.0 0.0 0.0 0.0 0.0 0.0" pbc="T T T"
H        9.75602203       6.90341146       9.01718611       0.16486987      -0.09180914       0.07223704       0.61936826      -0.07852864       0.59958344       0.07170422
C        8.72000554       7.82767020       7.38375814       0.31043249       1.04456769       1.05564737       1.59336233      -1.99885853       0.64762060      -0.07485832
C       10.08217084       7.80762821       6.72008634      -0.66099048       0.04546240       0.55966691      -4.43524990       3.52720845      -3.25852588       0.59122518
H        7.47844081       6.66528048      10.31998146       0.13064082      -0.14614343      -0.07929075       0.41979777      -0.23069473      -0.44552526       0.04301385
O       10.07626817       8.53154565       5.53776734       0.14837291      -1.23998739      -0.21702921      -0.46953869      -0.31601110       0.89225859      -0.51812080
C        6.34076818       7.68057934       7.34496835      -0.22711099       0.00359426      -0.49468297      -0.88399019      -0.54823726      -0.45828273      -0.02713094
C        5.01559973       7.76488948       6.68751869       1.14818660       0.17801106       0.18511780       3.46792523       3.25127518      -2.84383895       0.58373304
O        5.06323693       8.62642166       5.54627459       0.06730640       0.07497040       0.33196749       0.61927464      -1.45454083       2.02712874      -0.55391774
O        4.05150048       7.25713652       7.05636270      -1.39522539      -0.39770746      -0.66246213      -3.56996030      -1.70124352       1.02579253      -0.47623141
O       10.99608155       7.23876610       7.08783329       0.32134103      -0.35440106       0.05435510       4.34143637      -2.66878045       1.96381603      -0.46075632
C        8.80748993       7.17343997       8.63562922      -0.40308859       0.46430012      -0.42175590      -2.62669943       1.12058657      -0.52456988       0.00600666
H        5.41091887       6.90858496       9.05824161       0.26329488      -0.12189244       0.14309098       0.26212703      -0.09581254       0.20956039       0.06118429
H        7.50814764       8.28204874       5.71561351      -0.17293883      -0.01046157      -0.20602405      -0.07687854       0.52525382      -1.18046597       0.05151188
C        7.51680958       7.95669175       6.71661142      -0.10602347       0.28949378       0.08864609       0.99764388       0.63728936       0.12445649      -0.00302902
C        7.57090127       6.96978320       9.26729537       0.68058949       0.09860828       0.36431912       0.55802273      -0.53626817       1.08133020      -0.01916689
C        6.37534143       7.12455372       8.60058504      -0.26724238      -0.16597157      -0.66828896      -0.46372161       0.35544950       0.87090931      -0.00046423
H        9.17430514       8.88755548       5.45193575      -0.27272611       0.15893295      -0.14681983       0.41091097       0.18735636      -0.40596769       0.34967261
H        4.18431642       8.68427954       5.18588063       0.27031175       0.17043311       0.04130589      -0.76383054       0.02455655      -0.32527995       0.37562395
18
Lattice="15.099991252438835 0.0 0.0 0.0 15.099991252438835 0.0 0.0 0.0 15.099991252438835" Properties=species:S:1:pos:R:3:momenta:R:3:forces:R:3:charge:R:1 energy=-1059.1082840128718 free_energy=-1059.1082840128718 dipole="-0.8509099819087594 0.7278522730218377 -0.2563822782552063" stress="0.0 0.0 0.0 0.0 0.0 0.0 0.0 0.0 0.0" pbc="T T T"
H        9.64979866       6.94142449       9.07346829       0.08679231       0.07668607       0.15475011       1.77556789      -0.27601625       0.71156195       0.06895276
C        8.76125805       7.84578583       7.42342962       0.09335858       0.00081097      -0.61298800      -1.49149527      -0.19232191      -2.13413274      -0.05115123
C       10.02480400       7.83783369       6.69634863       0.54232961      -0.27162455      -0.37777985       3.53761757      -1.99645196       1.27034109       0.57776546
H        7.70422832       6.42338609      10.24741457       0.15963247      -0.14664855      -0.13452509      -0.51213829       0.33342524      -0.26974939       0.04868814
O       10.05360860       8.45356967       5.54547035      -0.11645868      -1.54125596       0.23139234      -0.25803340       1.13612580      -1.83677169      -0.47645188
C        6.31948678       7.68274701       7.31806443       0.23177854      -0.11026905      -0.03249988       1.66232695      -0.53359654       1.32840668      -0.02796224
C        5.02573877       7.82329717       6.64786561      -1.91458832       0.21452494      -0.48285837      -2.26180771      -1.90097299       1.25656023       0.58087732
O        5.08107136       8.59554675       5.60144351       0.63377620      -0.55688699       0.60938117       1.21316737       0.89342473      -0.68130522      -0.49965346
O        3.98557690       7.25831735       7.00508942       0.36309488       0.47639086      -0.86495486       1.90802396       1.09877966      -0.45490829      -0.54270522
O       11.03615043       7.20445744       7.10488032      -0.33756862       0.19376230       0.13273612      -3.12386039       2.04445356      -1.11316073      -0.53097612
C        8.75107416       7.22850189       8.63992899      -0.86241964       0.80618279       0.46737908       0.39754917       0.54076082       0.06002181       0.01614022
H        5.53510535       6.74258115       9.16540436       0.08650380       0.05227153      -0.25884302      -0.06269491       0.41036659      -0.62598278       0.05902513
H        7.42725136       8.35121631       5.70630346       0.13409038       0.24688687      -0.10887315       0.54266846       0.43164666      -0.89559059       0.04946120
C        7.54813523       8.01267610       6.70219290       0.41205178       0.90577831       0.10246485      -0.55009819      -0.14687224       1.73080755      -0.01670349
C        7.61045983       6.95810963       9.29408796      -0.16639606      -0.30980245       0.21319949      -1.71773664      -0.91510714       0.41509945      -0.02368580
C        6.40384934       7.12494063       8.60939874       0.61860152      -0.21771741       1.12058120      -0.64194728      -0.27156960       0.90125427       0.00869615
H        9.26044584       8.93106516       5.17714260      -0.07324483       0.16094028      -0.37440339       0.82960910      -0.69526385       0.86061462       0.36630474
H        4.22444036       8.73879476       5.23033328       0.10866610       0.01997003       0.21584127      -1.24671840       0.03918943      -0.52306626       0.39337834
18
Lattice="15.099991252438835 0.0 0.0 0.0 15.099991252438835 0.0 0.0 0.0 15.099991252438835" Properties=species:S:1:pos:R:3:momenta:R:3:forces:R:3:charge:R:1 energy=-1059.1765261407143 free_energy=-1059.1765261407143 dipole="-0.7709428041133778 0.7170367983523679 -0.08069240885230212" stress="0.0 0.0 0.0 0.0 0.0 0.0 0.0 0.0 0.0" pbc="T T T"
H        9.65199926       7.16330133       9.16913018       0.10741190       0.31065066      -0.01996320       2.24698054      -0.39512707       0.99698198       0.06346727
C        8.74434834       7.83245951       7.35430932      -0.01949479      -0.48814934      -0.18699995       0.59291202      -0.66336740       2.21637942      -0.06980165
C       10.10150419       7.80841055       6.69243448      -0.39287159       0.13853809      -0.32234588      -4.18985207       2.11196596      -1.84192113       0.60123357
H        7.58498091       6.37054430      10.25593863      -0.31653429       0.13751461       0.15291358       0.07826151       0.31508815      -0.06195041       0.04634630
O       10.08191384       8.38542455       5.48656522       1.36458897      -0.84245227      -1.48191041      -0.99821999       1.43218852      -1.25261346      -0.50246338
C        6.35556748       7.66345080       7.36233443       0.44415800      -0.24487205       0.63854327      -0.75549513       0.75426036      -0.67690666      -0.03598406
C        4.96983435       7.81900236       6.66793615       1.60769955       0.11840588       0.77067688       2.21994004      -0.90487187       0.89779900       0.58035338
O        5.11410846       8.59195188       5.60800565      -0.10731204       0.42861118      -0.48815653       0.31776377       0.39326180       0.06471999      -0.50698369
O        3.95494743       7.25815890       6.97266012      -1.61148210      -0.50523533      -0.16297222       0.16631042       0.33419650       0.21838375      -0.51574412
O       11.00600197       7.23013035       7.10336365       0.89406746       0.00475280       0.34415507       3.58245028      -1.99903071       1.74309796      -0.47888733
C        8.76502915       7.31326783       8.68305020       0.32087609       1.17265047       0.17677736      -3.00491330       0.00146847      -1.45551033      -0.00138707
H        5.40314604       6.79460596       9.01379537       0.07195602       0.05435045      -0.09520603       0.55409592      -0.00875697       0.15256205       0.05732734
H        7.64038398       8.53538827       5.78009395       0.03979181       0.25926932       0.04978536      -0.70005577       0.43982984      -1.30225767       0.04466947
C        7.54208539       8.10072268       6.72999104      -0.67248367       0.71649060       0.58729213      -0.38624134      -1.08501409       1.37871472      -0.00847961
C        7.57278423       6.90102549       9.30492792      -0.20405643      -0.95363773       0.44142041       0.99407560       0.27253738      -0.15125851      -0.01852126
C        6.39008458       7.10627559       8.63981445      -1.25941995      -0.31026690      -0.54066997      -1.25511881      -0.24710952      -0.65572458      -0.00199982
H        9.24160700       8.90379696       5.23343742      -0.30374882      -0.02248067       0.20748537       1.64416919      -1.09514339       0.66532324       0.35627639
H        4.22306709       8.76739722       5.34184938       0.03685388       0.02586022      -0.07082524      -1.10706287       0.34362403      -0.93581936       0.39057827
18
Lattice="15.099991252438835 0.0 0.0 0.0 15.099991252438835 0.0 0.0 0.0 15.099991252438835" Properties=species:S:1:pos:R:3:momenta:R:3:forces:R:3:charge:R:1 energy=-1059.0743017281081 free_energy=-1059.0743017281081 dipole="-0.8262385327703129 0.6209373806432221 -0.010072445797756355" stress="0.0 0.0 0.0 0.0 0.0 0.0 0.0 0.0 0.0" pbc="T T T"
H        9.68709624       7.38976137       9.11465962      -0.15725779       0.01989918      -0.01440521       1.52380913      -0.49734957       1.32631649       0.07377216
C        8.74414221       7.80120158       7.38081039      -0.31780198      -0.11050237       0.13030311      -0.62334862       0.79269372      -0.66148379      -0.04816310
C       10.06650879       7.81347294       6.66178462       0.94074705      -0.71685808      -0.28455648       3.31348403      -1.58183125       0.48838366       0.56154753
H        7.47829404       6.52605328      10.31375299       0.09948071       0.10739208       0.02275001       0.39816664      -0.15651767       0.22723510       0.05303229
O       10.13474049       8.33990638       5.40708396       0.66916009      -0.81627544      -0.75530708      -2.35969077       0.37898923       1.18975527      -0.47428366
C        6.33508829       7.67883055       7.36932704      -0.77309672       0.45347336      -0.28879561      -0.32807423      -0.27034160       0.53510848      -0.01844390
C        5.04490291       7.78693731       6.70367222      -0.43827165      -0.53367486      -0.13378078      -3.35832730       0.64200822      -1.77303215       0.56898791
O        5.10328075       8.61789145       5.59327642      -0.03188124       0.11665615       0.31596875       1.53660090      -0.64748588       1.38251684      -0.53433181
O        3.95516053       7.27648066       6.97693462       1.59822068       0.92896172       0.17000336       2.68322118       0.74690711       0.05048301      -0.51712817
O       11.07380931       7.23264589       7.13281597      -0.02223001       0.94055339       0.00649956      -3.25482092       1.90863979      -1.11204336      -0.50613313
C        8.73415120       7.38184477       8.70754255      -0.87189864       0.23440840       1.01903704      -2.08665356      -1.07259599      -0.47208964       0.01132927
H        5.35169573       6.76677573       9.04468477       0.03755158      -0.15424036      -0.04338949       0.86605561      -0.02213981      -0.29230207       0.06640246
H        7.42981362       8.60903782       5.85899539      -0.36640326      -0.01628562       0.02516935       0.10275511       0.56175968      -1.39472237       0.05345950
C        7.50605783       8.12457748       6.78306526       0.00122701      -0.01666663       0.59327879       0.94392426      -1.15134837       0.82089273      -0.01081103
C        7.54906436       6.88415894       9.30255669      -0.39639713       0.53307108      -0.59836694      -0.25689351       1.37613128      -0.85060638      -0.01897245
C        6.33417881       7.05129490       8.60933492       0.01673158      -0.79163465       0.38618794       0.39410046      -0.40750724       0.94030850       0.00286575
H        9.22046745       8.72972477       5.22528935      -0.03621595      -0.02156733      -0.37047722       1.61028628      -0.46068846      -0.16458086       0.35258541
H        4.26555946       8.75499952       5.17512531       0.04833565      -0.15671002      -0.18011909      -1.10459469      -0.13932319      -0.24013946       0.38428498
18
Lattice="15.099991252438835 0.0 0.0 0.0 15.099991252438835 0.0 0.0 0.0 15.099991252438835" Properties=species:S:1:pos:R:3:momenta:R:3:forces:R:3:charge:R:1 energy=-1059.138591462084 free_energy=-1059.138591462084 dipole="-0.6994030171445772 0.33889550254504186 -0.47057778736627076" stress="0.0 0.0 0.0 0.0 0.0 0.0 0.0 0.0 0.0" pbc="T T T"
H        9.58928017       7.17684792       9.29470566      -0.31559765      -0.26779746       0.09116799       0.69278909       0.14190420       0.15934559       0.05851614
C        8.72987147       7.82452790       7.38381661      -0.00217287       0.64481115      -0.08607594       0.86750443      -0.15662592       0.57365108      -0.06739129
C       10.12576192       7.77152854       6.62472314      -0.91465640       0.32536444      -0.99192265      -4.13395633       1.75178286      -0.32633876       0.60149189
H        7.60172767       6.54381272      10.29272596      -0.00336878      -0.02344270       0.04204803      -0.37579898      -0.19843720       0.15789705       0.04240706
O       10.15417557       8.28820754       5.39270674       0.41762599      -1.03518911       0.02865990      -0.59356411       0.36702449      -1.15088910      -0.50283425
C        6.29242299       7.69626722       7.41088238      -0.13665659       0.03384469       0.90370677       0.71625413       0.11943981      -0.94434339      -0.03890177
C        5.01451564       7.80795309       6.63124821       0.61128903       1.00715974      -1.04877693       1.25191931      -0.25948780       2.55003862       0.58405639
O        5.11102704       8.60229283       5.61055446       0.32090808      -0.34263938      -0.24895836       0.28529948       0.44909383      -1.25259233      -0.49988345
O        4.00669042       7.28499093       7.00934205      -0.58336175      -0.86535458       0.98956622      -0.80627733      -0.47914871      -0.28452523      -0.53443886
O       11.06700368       7.31409233       7.12553877       0.94304988       0.90956042       0.65942958       2.42090307      -1.25300872       1.37947107      -0.47527612
C        8.69282774       7.39101455       8.75966087       0.44174090       0.15244705      -0.05947139       0.11802139      -0.03854282      -2.36800041       0.00020070
H        5.40960120       6.50123735       9.00795542       0.02091635      -0.27647260       0.03041571       0.59566007       0.56309625      -0.33624584       0.05954408
H        7.41985344       8.51481996       5.83809096       0.36459708      -0.09076742       0.04825894       0.08787955       0.73866563      -1.70663438       0.04362206
C        7.50899006       8.12568647       6.79481526      -0.06355741      -0.19867436      -0.08681837      -0.37399148      -1.41930723       1.93107221      -0.01789875
C        7.51452340       6.95312642       9.29615910      -0.58610864       0.72496243       0.63475444       0.05317585      -0.06106194       0.77465902      -0.02134301
C        6.31502067       7.00545769       8.60717622      -0.56745406      -0.18745214      -0.68416160      -0.67618627      -0.18199566       0.38974737       0.00588048
H        9.37152806       8.59543363       4.85836413       0.09221211      -0.21519006      -0.21794811       0.73641540      -0.49876973       1.25368871       0.36976837
H        4.29505560       8.44085468       5.14541627      -0.03940528      -0.29517010      -0.00387425      -0.86604729       0.41537867      -0.80000129       0.39248033
18
Lattice="15.099991252438835 0.0 0.0 0.0 15.099991252438835 0.0 0.0 0.0 15.099991252438835" Properties=species:S:1:pos:R:3:momenta:R:3:forces:R:3:charge:R:1 energy=-1059.0868583876133 free_energy=-1059.0868583876133 dipole="-0.8831873295067506 0.17860342736042945 -0.33403472066304096" stress="0.0 0.0 0.0 0.0 0.0 0.0 0.0 0.0 0.0" pbc="T T T"
H        9.61379763       7.03475805       9.26524313       0.01813887       0.18942775      -0.33692844      -0.19831108       0.52913290      -0.39709453       0.06474008
C        8.76340723       7.87484540       7.39950146       0.35273867       0.15371719       0.38559412      -0.65599790      -1.29321687       0.81789943      -0.05130726
C       10.05486864       7.80477602       6.63019861       0.48730816      -0.00152908       1.00312018       2.93809529      -0.35057639       1.19776068       0.57387500
H        7.47828125       6.50663317      10.28717724      -0.12956819       0.02555675      -0.06077770       0.25187482      -0.10765785       0.46084846       0.04827259
O       10.19612526       8.23775690       5.37536922       0.36331634      -0.77088029      -0.58610996      -2.15649518       0.14938616      -0.92067453      -0.47757947
C        6.28427736       7.71910818       7.40070170       0.20451435       0.50661511      -0.91075877       1.12368896      -0.72560442       0.23643237      -0.02952624
C        5.01838341       7.82168508       6.68349400      -0.81384907      -0.53707935       1.37289361      -0.33145778       0.41282838      -0.91899340       0.57583994
O        5.10723195       8.59116119       5.54913923      -0.29556118      -0.44399086      -1.23689945       0.13394476      -0.83242227       1.06571774      -0.52663064
O        4.00608913       7.26655444       7.02566989       0.65913424       0.26261883      -0.46730911       0.14916883       0.27226619      -0.34638761      -0.51652363
O       11.09440023       7.38192771       7.14684736      -0.52722292       1.50008930      -0.26047920      -2.25942365       0.52467938      -0.11867010      -0.51096449
C        8.71779910       7.35506671       8.71271567      -0.04064269      -0.99931182      -0.26082090      -0.87129170      -0.59220860       0.62411658       0.01684795
H        5.37827316       6.43491695       8.93676561      -0.23469278       0.11715646       0.02274796       0.56225898       0.64632447      -0.04276551       0.06895118
H        7.61196003       8.49394622       5.86250325      -0.10658697      -0.08089952       0.22456291      -0.67409086       0.83781915      -1.89374947       0.04678716
C        7.50631165       8.08188783       6.80731096       0.09572134      -0.40181933       0.16296733       0.29116016      -0.31907982       1.49052167      -0.00747541
C        7.47401034       7.00097290       9.33723144      -0.31741074       0.52575775       0.19498059       0.79101205      -0.29612125      -1.46407388      -0.02690080
C        6.28463084       6.97902850       8.61255289       0.50195228       0.00557970       0.70418696       0.45544465       0.93209048      -0.20243250       0.00885165
H        9.35968399       8.34067502       4.84275803      -0.05815381      -0.23607601       0.20440093       0.97817225       0.03590455       0.73977193       0.35955660
H        4.29602818       8.43531318       5.06204479      -0.15913589       0.18506740      -0.15537106      -0.52775261       0.17645580      -0.32822731       0.38318580
18
Lattice="15.099991252438835 0.0 0.0 0.0 15.099991252438835 0.0 0.0 0.0 15.099991252438835" Properties=species:S:1:pos:R:3:momenta:R:3:forces:R:3:charge:R:1 energy=-1059.2728564085771 free_energy=-1059.2728564085771 dipole="-0.8231661335455283 0.34921579979871337 -0.1781723946100425" stress="0.0 0.0 0.0 0.0 0.0 0.0 0.0 0.0 0.0" pbc="T T T"
H        9.69534778       7.17279340       9.13699786      -0.15528412       0.04727810       0.11387875      -0.69600674      -0.18294206       0.44635998       0.06392800
C        8.75646074       7.82823737       7.43934305      -0.35188726      -0.78094395      -0.01722969      -0.31421940       0.19033020      -2.21570899      -0.05435384
C       10.10319241       7.84370491       6.67080194      -0.58619398       1.29144228      -0.48384472      -1.41308356       0.32947117      -1.25503028       0.58030574
H        7.52339104       6.61001962      10.33775930       0.21133799       0.15221100      -0.01651178      -0.14173528      -0.01201597       0.00425486       0.04614725
O       10.17881360       8.17569685       5.33892734      -1.27460111      -0.94910514      -0.49095263      -2.04996340      -0.01009654       0.84917347      -0.49832162
C        6.32690583       7.71064298       7.37195983       0.43906893      -0.87126538       0.38433658      -0.61691338      -0.77745280       0.95336781      -0.02614223
C        5.01286518       7.84018007       6.70339420       0.60586745       0.85617226      -1.18766168      -0.99971300      -0.38025504      -1.84835690       0.57834224
O        5.08074790       8.53494607       5.52113780      -0.17520405      -1.06785904       0.37148159       0.44281042       0.08040893       0.71480827      -0.52847811
O        3.99439852       7.26992864       7.02336577      -0.98698615      -0.15956586       0.08567430       0.78972727       0.62653421       0.23016338      -0.51423430
O       11.08632932       7.44275535       7.16484095       1.49854153       0.13274518       1.63460782       1.91151900      -0.65087606       1.86492614      -0.47520472
C        8.68806715       7.30639226       8.71010913       0.22340477      -0.41607524       0.35087515       1.45149784       0.11957059       0.33759252       0.00914117
H        5.34390945       6.73908433       9.07104613      -0.11105871       0.26798065       0.26391244       0.65330033       0.13154879      -0.40755979       0.06400343
H        7.40757949       8.54785895       5.86911253      -0.06162498       0.04723479       0.31765563       0.46519505       0.52622140      -1.16519048       0.04992739
C        7.53129972       8.06919107       6.80049776       0.40453555       0.09170344      -0.83757291      -0.01640544       0.03159076       0.32490898      -0.01633201
C        7.48303613       7.01204719       9.33072790       0.34820877      -0.47597299       0.15285429       0.37988772      -0.75728250       0.25246873      -0.01875941
C        6.30490640       7.04361230       8.61262556       0.11140069       1.80660700      -0.61494498      -0.39557805       0.84403909       0.45282095       0.00344403
H        9.27863417       8.18788609       4.95263390       0.11199097      -0.02118085      -0.02048579       0.55455612       0.23802800      -0.05134410       0.35356662
H        4.24968147       8.63691912       5.02458422      -0.25151628       0.04859376      -0.00607237      -0.00487548      -0.34682218       0.51234546       0.38302036
18
Lattice="15.099991252438835 0.0 0.0 0.0 15.099991252438835 0.0 0.0 0.0 15.099991252438835" Properties=species:S:1:pos:R:3:momenta:R:3:forces:R:3:charge:R:1 energy=-1059.308902700455 free_energy=-1059.308902700455 dipole="-0.8859273035349154 0.5180558592791253 -0.4056949139978972" stress="0.0 0.0 0.0 0.0 0.0 0.0 0.0 0.0 0.0" pbc="T T T"
H        9.64139631       7.17031649       9.36284321      -0.17594870      -0.07453889       0.11282895      -0.48533156       0.03441872      -0.87341305       0.06171413
C        8.74479828       7.78719205       7.39170056       0.19913269      -0.19538364      -0.91115598       0.84421265      -0.08287306       0.80683941      -0.05006904
C       10.10489189       7.86921574       6.65735587       1.09023968      -0.78793683       0.65323131       0.49125545      -1.70982700       1.66869199       0.58181309
H        7.52062403       6.70416013      10.38939163      -0.22986407       0.09493735      -0.02577870      -0.14252173      -0.17971159      -0.07439102       0.04481570
O       10.08702703       8.11381305       5.33986397      -1.67080800      -0.77541635       0.17164161       0.24027698       0.22927393      -0.19614177      -0.49487703
C        6.32809816       7.65858689       7.35518622       0.01755357       0.02460705      -1.32830737       0.11687006       1.05422097      -0.74711906      -0.03614002
C        5.00231450       7.82446331       6.63583757      -0.48108606      -1.32037051       0.24842997       1.40374406      -0.92618041       1.17826825       0.58663292
O        5.08434647       8.49244168       5.52904757       0.27725795      -0.07562129      -0.50722148      -0.90598854       1.31850876      -1.85430544      -0.49640372
O        3.98827975       7.30966751       6.99456107       0.71178744       1.22129962      -0.41287635      -0.97130559      -0.39790878       0.73843994      -0.53252208
O       11.11610658       7.47222028       7.24871605      -1.32040584       1.03259360       0.58819315      -2.13816159       1.42377792      -1.66174250      -0.50736567
C        8.72342051       7.28464124       8.74701344       0.88614682      -0.19749471       0.20848471       0.60178544       0.32865902      -1.02802793       0.00951171