18
Lattice="15.099991252438835 0.0 0.0 0.0 15.099991252438835 0.0 0.0 0.0 15.099991252438835" Properties=species:S:1:pos:R:3:momenta:R:3:forces:R:3:charge:R:1 energy=-1059.3133309515088 free_energy=-1059.3133309515088 dipole="-0.8846153237053465 0.7485487542979873 -0.38990882983938624" stress="0.0 0.0 0.0 0.0 0.0 0.0 0.0 0.0 0.0" pbc="T T T"
H        9.70793264       6.95080685       9.12218028      -0.11018116      -0.10477376       0.18059963      -0.11628180       0.03377310      -0.04667786       0.06813145
C        8.75989986       7.67952382       7.33625018      -0.01784959      -0.20000495       0.46004587      -0.61218292       0.08345296       0.09955011      -0.05103673
C       10.05431785       7.85239938       6.61898573       0.71580571      -0.27912261       0.68627599       3.07828522      -3.51801977       3.90294395       0.57498164
H        7.54827439       6.57508920      10.33089401      -0.13502382      -0.14899602      -0.00804378      -0.00289685       0.01283003      -0.15468681       0.04749553
O       10.05918583       8.58252272       5.56702072      -0.01442672       0.68068784      -0.68078593       0.57774284       0.98222538      -1.60184742      -0.45856642
C        6.34043134       7.68071383       7.33595326       0.01003839      -0.29006411       0.50864922       0.45681913       0.23323087      -0.18812326      -0.02240604
C        5.04769294       7.85337302       6.61653733       0.39478200      -0.14967538       0.33442264      -2.75257268      -3.47034237       3.97655537       0.57073395
O        5.04401430       8.58306364       5.56421210      -0.41140763      -0.24884077      -0.15857498      -0.23384532       0.85003622      -1.37556519      -0.47730025
O        4.04382003       7.23619215       7.10526479       0.10499675       0.07825781       0.07386656       2.75495470       2.33630389      -2.15788338      -0.56239199
O       11.05848231       7.23651670       7.10872349      -0.18324596      -0.05531654      -0.25528127      -3.12255471       2.46866152      -2.23449560      -0.53856667
C        8.75521554       7.16944358       8.64530995      -0.68421189      -0.36953398      -0.15553200      -0.26506360       0.05272409      -0.15497353       0.01382454
H        5.38937001       6.94994139       9.11953743      -0.01532476       0.19136694       0.05384009       0.12375693       0.03791768      -0.04085842       0.06739213
H        7.54941401       8.36929512       5.68318657       0.25214767      -0.03525985      -0.36972851      -0.12029426      -0.06505352       0.04302411       0.03835115
C        7.55033911       7.96837096       6.69378831      -0.08325357       0.17994833      -0.58080866       0.01118928      -0.21823518       0.45511476      -0.02512088
C        7.54876061       6.94301771       9.30758709       0.36287216       0.22447386       0.07176472      -0.00597784       0.11659619      -0.35295634      -0.02198188
C        6.34277924       7.16965994       8.64449876      -0.08971495       0.41054960      -0.41877259       0.22900402       0.05698493      -0.17296773       0.00880900
H        9.20652115       8.98846145       5.35446876      -0.10411637       0.11072224       0.15859911       0.00146339       0.00588530       0.00458359       0.37011285
H        4.15070164       8.60157896       5.17667327       0.00811374       0.00558139       0.09946391      -0.00154553       0.00102867      -0.00073635       0.39753863
18
Lattice="15.099991252438835 0.0 0.0 0.0 15.099991252438835 0.0 0.0 0.0 15.099991252438835" Properties=species:S:1:pos:R:3:momenta:R:3:forces:R:3:charge:R:1 energy=-1059.356737278468 free_energy=-1059.356737278468 dipole="-0.8608172090601187 0.3871469634079767 0.1748101612071892" stress="0.0 0.0 0.0 0.0 0.0 0.0 0.0 0.0 0.0" pbc="T T T"
H        9.62299795       6.88553372       9.16561471       0.09530303      -0.04751743      -0.11606459       0.30066997       0.11072437      -0.26265235       0.06063518
C        8.74115851       7.68051173       7.34114546      -0.22983777       0.13249705      -0.21460169       0.52174237       0.05198147      -0.08734022      -0.05742784
C       10.10705739       7.80703628       6.70258107      -1.10862023       0.36978538       0.02033454      -3.85580963       2.65871429      -2.92026805       0.58510502
H        7.50406611       6.49827655      10.27748384       0.02689693      -0.08789672       0.01921721       0.13486953       0.09201651       0.30063908       0.04876636
O       10.06803685       8.62351087       5.53070184       0.26243545       0.27400716       0.13863587       0.07504456      -1.08574650       1.94615137      -0.52992900
C        6.36265573       7.67588122       7.33221866       0.59817749       0.20323412      -0.61579193       0.23334784       0.14429256      -0.26646200      -0.03280833
C        5.02904516       7.78110694       6.71106012       0.63253671      -0.33852140       0.47914214       3.86395141       3.20559007      -3.31611548       0.58826522
O        5.02377757       8.57873758       5.55671273      -0.37849474      -0.11916668       0.35316829       0.70251218      -0.73192442       1.32191031      -0.54778839
O        4.07672227       7.27718765       7.09243311      -0.64915637       0.18867552       0.35794122      -4.55697041      -2.33185016       1.85391651      -0.48559822
O       11.04423113       7.25075095       7.06253288       1.36632018      -0.40914709      -0.49222408       3.37624808      -1.64752835       1.13389933      -0.45322569
C        8.71593277       7.14930364       8.63683587      -0.31781846      -0.16553109       0.04712969       0.57283460       0.19760873      -0.07259987       0.00627959
H        5.39381807       7.07407156       9.11371345      -0.03507535       0.01133329      -0.03477600      -0.18869974      -0.26041372       0.14647914       0.06264133
H        7.55695484       8.24643326       5.63517904      -0.21850424      -0.02608884      -0.22369811      -0.13163180       0.31755231      -0.62496352       0.05706975
C        7.55757699       7.96020449       6.65893413       0.29734606      -0.50405954       0.28867605      -0.09267993      -0.75957393       1.26682970      -0.00883328
C        7.53814995       6.95872301       9.30419699      -0.74474164       0.14590486      -0.28967253      -0.77285612      -0.47159130       0.00507221      -0.01903876
C        6.35144557       7.18811086       8.63472822       0.35447569       0.24297316       0.20262915       0.05186945       0.46152828      -0.02146781       0.00047412
H        9.20196558       9.05666266       5.49689694      -0.02394559       0.10435805       0.02793671       0.21190478       0.06866491      -0.21587469       0.34859500
H        4.11995185       8.62818683       5.23963992       0.07270285       0.02516020       0.05201806      -0.44634714      -0.02004510      -0.18715366       0.37681794
18
Lattice="15.099991252438835 0.0 0.0 0.0 15.099991252438835 0.0 0.0 0.0 15.099991252438835" Properties=species:S:1:pos:R:3:momenta:R:3:forces:R:3:charge:R:1 energy=-1059.4188566729283 free_energy=-1059.4188566729283 dipole="-0.8253860576033321 0.6602384012583649 -0.19206848204979568" stress="0.0 0.0 0.0 0.0 0.0 0.0 0.0 0.0 0.0" pbc="T T T"
H        9.70623947       6.86924962       9.00365653       0.07099799      -0.01505805      -0.02311821      -0.35801743       0.04389997       0.38250290       0.06803261
C        8.74830018       7.68476192       7.34542413       0.32434627      -0.09320540       0.18955208       0.26340537      -0.16304462      -0.28779198      -0.04896710
C       10.05852134       7.84740169       6.65121783       0.99368927      -0.18762418      -0.47803538       2.94503183      -2.14294494       1.48175591       0.57498241
H        7.51563009       6.50443774      10.29025004      -0.01676289       0.03881102       0.11850567      -0.11446059      -0.09584133       0.38808400       0.05139706
O       10.07211490       8.61890050       5.58884824       0.14525369      -0.10422458       1.25849587       0.03047610       0.69498042      -0.75052220      -0.47457223
C        6.39765898       7.68193650       7.31315630      -0.02207821      -0.11706192       0.32016350      -1.69821601      -0.41164054       0.57984731      -0.02262176
C        5.07616987       7.80565802       6.66969319      -1.04231339      -0.00796363      -0.68003606      -3.59294234      -1.62819338       1.77556338       0.56707214
O        5.01272688       8.56350588       5.60651167      -0.05057794      -0.35993961       0.93549019       0.89281542       0.48371330      -0.63989163      -0.49380561
O        4.02301315       7.27504719       7.12775807       0.18713080       0.35987970       0.12811872       3.23962528       1.41101045      -1.19818569      -0.55498869
O       11.09518430       7.24984076       7.02304876      -0.78806853       0.88370084      -1.08924831      -3.04764327       1.71740947      -0.91047902      -0.52083589
C        8.71830351       7.14416530       8.62855439       0.16725495       0.03804432      -0.23211645      -0.04158869      -0.03453515       0.19249641       0.00674074
H        5.39752895       6.99314815       9.08258709      -0.01613769      -0.10080645      -0.01592095      -0.41637500       0.07828305       0.05511767       0.06870959
H        7.46449763       8.20412442       5.64924541       0.12995354       0.02812679      -0.17613267       0.37926392       0.47210908      -1.26537981       0.05211477
C        7.56588010       7.92107167       6.65510465       0.14502084      -0.34120452      -0.15223342       0.31784813      -0.06216164       0.78435813      -0.01861649
C        7.50119093       6.93542451       9.31034900       0.26123917      -0.47225726       0.24426119       1.38059519       0.18394372      -0.95984255      -0.01955408
C        6.34244303       7.21721009       8.62442007      -0.55147067       0.47295663      -0.30723049       0.35602127      -0.31429903       0.45903072       0.00461929
H        9.27038772       9.13494735       5.39724037       0.05862894       0.06988569      -0.17371076       0.14194520      -0.25373403       0.17671358       0.36566770
H        4.10356995       8.59198626       5.30674497       0.00389387      -0.09205939       0.13319546      -0.67778438       0.02104521      -0.26337714       0.39462554
18
Lattice="15.099991252438835 0.0 0.0 0.0 15.099991252438835 0.0 0.0 0.0 15.099991252438835" Properties=species:S:1:pos:R:3:momenta:R:3:forces:R:3:charge:R:1 energy=-1059.4872916529314 free_energy=-1059.4872916529314 dipole="-0.9023291829110496 0.5098516483528572 -0.15489131528053574" stress="0.0 0.0 0.0 0.0 0.0 0.0 0.0 0.0 0.0" pbc="T T T"
H        9.67144232       6.86182370       9.10641810      -0.01798222      -0.00052371       0.13118148       0.15001548       0.08453655       0.12234309       0.05977285
C        8.77210627       7.67995985       7.34795683       0.10772214      -0.05292508      -0.19652223      -0.68984224      -0.47204739      -0.03671604      -0.06234512
C       10.08815411       7.82941108       6.63889115      -1.50537624       0.40440006      -0.18991873      -1.61133158       0.58176113       0.37112670       0.59632747
H        7.51475287       6.55465506      10.29981299       0.03768423       0.00324648       0.01940794       0.01806488      -0.40329941       0.63519310       0.04790465
O       10.09885683       8.64844118       5.61518874       0.66483905       0.94359155      -0.53682025      -0.20557848       1.17410963      -1.46408002      -0.49129376
C        6.34748477       7.68174776       7.32233854      -0.71855700       0.08256945      -0.34705916       0.95877648      -0.24864114      -0.58824689      -0.03962442
C        4.99415822       7.77804346       6.68287133       0.63060155      -0.02798339       0.42357773       3.93538418       1.73839739      -0.56108786       0.59362548
O        5.00092891       8.55859033       5.61572730      -0.44112919       0.31679643      -0.52807845       0.20923005       0.30591920      -0.69409252      -0.51498089
O        4.03797755       7.29785928       7.12436108      -0.99753485      -0.27624199       0.43709810      -3.60424327      -1.89810955       1.48790116      -0.51208054
O       11.07074714       7.28293185       6.97327473       1.35217528      -0.63506793       0.02385028       1.97647439      -1.44089586       1.01373047      -0.49887157
C        8.73510081       7.14303920       8.64598841       0.05888301      -0.03598309       0.63396820      -0.01367551       0.06132143      -0.22848395       0.00493733
H        5.37548733       6.94004798       9.03788218      -0.02240934      -0.00968233      -0.04292971      -0.16455348       0.15858799       0.38828299       0.06379681
H        7.70279581       8.19144931       5.63935431       0.13568159      -0.02725157      -0.01703231      -0.56319393       0.36409478      -1.18094826       0.04593239
C        7.58250488       7.89657012       6.64088936       0.00480240      -0.37341535       0.24729448      -0.52005638      -0.36001386       2.33408978      -0.01718715
C        7.53457904       6.90613594       9.29771583       0.28649504       0.07293000      -0.71147691      -0.42250303       0.88332899      -1.03882581      -0.02157365
C        6.33531015       7.22201265       8.63953099       0.55262954      -0.41563924       0.67858260       0.90124694      -0.54440224      -0.29877683      -0.00356007
H        9.28790977       9.13120012       5.38275357      -0.15709095      -0.03253282       0.12540723       0.14219531      -0.21624171       0.23518065       0.36297948
H        4.08298368       8.58579828       5.33429087       0.02856596       0.06371252      -0.15053028      -0.49640981       0.23159407      -0.49658976       0.38624070
18
Lattice="15.099991252438835 0.0 0.0 0.0 15.099991252438835 0.0 0.0 0.0 15.099991252438835" Properties=species:S:1:pos:R:3:momenta:R:3:forces:R:3:charge:R:1 energy=-1059.5356874547538 free_energy=-1059.5356874547538 dipole="-0.8291378313710779 0.5250656304862368 -0.003293788424791899" stress="0.0 0.0 0.0 0.0 0.0 0.0 0.0 0.0 0.0" pbc="T T T"
H        9.65679425       6.92825849       9.21323678       0.04447219       0.11760759       0.06207723       0.29870582       0.07987915      -0.20975785       0.06685957
C        8.74866232       7.65209180       7.34972881      -0.17587623      -0.67660632       0.12809169       1.14055135      -0.11922580      -0.08405038      -0.04821370
C       10.07497859       7.82979063       6.63767482       1.88173178      -0.43118905      -0.07215096       2.00943891      -0.11998348      -0.17198509       0.56843678
H        7.54333769       6.51995821      10.25454071      -0.03720817      -0.05975088       0.02505507      -0.10653962      -0.31815534       0.88770192       0.05022677
O       10.13170309       8.70591677       5.57708913       0.21212479       0.71250747      -0.30914789      -1.26668309      -0.67879675       1.20638875      -0.49120128
C        6.35676170       7.67058493       7.31698590       0.57951094      -0.46500972       0.61657105      -0.78038183      -0.67487653       1.14093661      -0.01927800
C        5.02868743       7.79728418       6.70622151      -1.32121400       0.07636614       0.22334515      -3.72296005      -0.44091089      -0.34432659       0.56839062
O        4.98896888       8.57273879       5.58296461       0.26281206       0.18564364      -0.34198331       1.39618793      -0.54930458       1.09871448      -0.51800853
O        3.97567978       7.27703870       7.14429551       0.27723353       0.31387292      -0.14593655       3.23658292       1.45521480      -1.06770255      -0.52988037
O       11.09795141       7.25959809       6.97465705      -1.07950406       0.05807099      -0.01883408      -1.72826889       0.60008358      -0.16701901      -0.49197887
C        8.75371148       7.15489259       8.66853644       0.29791723       0.27574189      -0.32149187       0.01539469       0.28686880      -0.98879986       0.01239407
H        5.42916942       6.99241183       9.14733849       0.07207250       0.10761391       0.17061748      -0.36527021      -0.01323515       0.01878876       0.06758707
H        7.53784659       8.18215630       5.66551201      -0.32640388       0.08595597       0.02755559       0.10024800       0.31881994      -0.97981857       0.05159767
C        7.55707027       7.87474009       6.67732868      -0.56058374      -0.17993621       0.37393425       0.14674015       0.05305080       0.43708615      -0.01170337
C        7.54202117       6.91981470       9.27323706       0.07259240       0.09913773       0.20086115       0.07577830       0.13349504       0.04032021      -0.02072261
C        6.35535634       7.18658239       8.63822901      -0.27029617      -0.35178061      -0.59519175      -0.03172520       0.10423485      -0.52842233       0.00450007
H        9.25121026       9.11460648       5.47518014       0.04928788       0.08309447      -0.01940380       0.43808136       0.05959988      -0.24871022       0.35275995
H        4.11800743       8.68388280       5.21440651       0.02133097       0.04866008      -0.00396845      -0.85588055      -0.17675832      -0.03934443       0.38823414
18
Lattice="15.099991252438835 0.0 0.0 0.0 15.099991252438835 0.0 0.0 0.0 15.099991252438835" Properties=species:S:1:pos:R:3:momenta:R:3:forces:R:3:charge:R:1 energy=-1059.577113188932 free_energy=-1059.577113188932 dipole="-0.9207759366901985 0.7364564812332686 -0.18060579920394565" stress="0.0 0.0 0.0 0.0 0.0 0.0 0.0 0.0 0.0" pbc="T T T"
H        9.71603577       7.07970287       9.14933541       0.10440403       0.10733091      -0.04198505       0.13524022      -0.25062462       0.21293629       0.06042601
C        8.77781038       7.61886181       7.32606111       0.49356363      -0.04298384      -0.93141238      -0.54101675       0.84130757      -0.93651006      -0.05638051
C       10.13102566       7.85827108       6.60240009      -0.98745569       1.02342568      -0.50613422      -0.60012005      -1.09469633       1.26444055       0.58492660
H        7.50206918       6.54190420      10.28987001      -0.01277290       0.13898146       0.04878215       0.23420551      -0.05704789       0.56625409       0.04524945
O       10.13394547       8.72062495       5.58444714       0.05009101      -0.04519704       0.41315659      -0.02015854       0.05021193       0.07698848      -0.48522045
C        6.32992649       7.62475156       7.35560057      -1.09509609      -0.36561352      -0.10193012      -0.60419093       0.53026614      -1.23397811      -0.03540953
C        4.94503240       7.83134774       6.68832336       0.83472370       0.84161862      -0.81314221       3.08732085      -0.33792659       0.59717826       0.58717578
O        5.01434803       8.56224357       5.58788270       0.42939619      -0.26338895       0.33111924       0.17649864       0.19604665       0.10797276      -0.50585349
O        3.98862588       7.29834157       7.13358280      -0.99495868      -0.09122189       0.35020731      -1.59832393      -0.21021824       0.22816859      -0.51108396
O       11.09181833       7.22999196       6.98287309       0.99090858      -1.09634447       0.07221764      -0.55041607       0.88881740      -0.69496055      -0.49794395
C        8.76584002       7.17368418       8.65092620      -0.16491104       0.22235192      -0.08134544      -0.48973319       0.02835956      -0.27314101       0.00518731
H        5.41761184       7.05686059       9.19195481      -0.05682763       0.00665061      -0.06947053      -0.26315903      -0.29719736       0.00930296       0.05857853
H        7.45223729       8.26025847       5.72268650       0.10837415       0.04825322       0.11825853       0.22109240       0.44760995      -1.43556322       0.04391755
C        7.53471010       7.87222868       6.69063587       0.10023590      -0.02155923       0.08597102       0.44175576      -0.63732550       1.57431039      -0.02431301
C        7.54836049       6.93155499       9.29589372       0.11395450       0.16683580       0.16010411       0.24708361       0.09593545      -0.68552546      -0.02406202
C        6.33888576       7.14358862       8.64062318       0.05533425      -0.72133977       0.90999550       0.51195755       0.05077847       0.87286134      -0.00112450
H        9.31290730       9.22274499       5.42756524       0.08197787       0.08196903       0.02494095       0.25018192      -0.35430804       0.21024985       0.36679697
H        4.12048177       8.68374326       5.26995125      -0.05094179       0.01023147       0.03066689      -0.63821798       0.11001146      -0.46098515       0.38913323
18
Lattice="15.099991252438835 0.0 0.0 0.0 15.099991252438835 0.0 0.0 0.0 15.099991252438835" Properties=species:S:1:pos:R:3:momenta:R:3:forces:R:3:charge:R:1 energy=-1059.611004285872 free_energy=-1059.611004285872 dipole="-0.747499569338357 0.6903582317122383 0.02345144862085256" stress="0.0 0.0 0.0 0.0 0.0 0.0 0.0 0.0 0.0" pbc="T T T"
H        9.68094722       7.10393246       9.16232238       0.00906444      -0.05209802       0.09453522       0.43843178      -0.14714155       0.09521235       0.06110250
C        8.77578814       7.62439781       7.27236094      -0.42781648       0.00982895      -0.04082875      -0.62022301      -0.01801976       1.69424646      -0.05491121
C       10.12141343       7.84296901       6.63969510       0.77047034      -1.16641880       0.92081846      -0.31373282      -0.06957297      -0.89609614       0.58540828
H        7.61537810       6.67716071      10.33686398       0.21308630       0.12492212      -0.00740934      -0.00587594      -0.28727485       0.55679365       0.04916601
O       10.14036194       8.72268152       5.59954553       0.13141128       0.18047603       0.16346746      -0.38219601       0.02653870       0.59762110      -0.49791302
C        6.28851780       7.61724908       7.33981715       0.51221706      -0.16428532       0.17305272       2.26447349      -0.46541108       1.33499032      -0.03124301
C        4.99722292       7.81722889       6.70112994      -0.37409561      -1.16152967       0.93712359      -1.66354222      -0.68053069       0.13279682       0.57664807
O        5.02718865       8.55597751       5.58301643       0.12541071       0.03141982      -0.21587897       0.57353841      -0.07685363       0.44887649      -0.51162815
O        3.96165238       7.32222415       7.12835846       0.42935111       1.05292696      -0.60329293       1.15501672       0.79018076      -0.52227551      -0.53425126
O       11.08900951       7.21524713       6.95873638      -1.01929431       0.54728548      -0.86851928      -0.15576057       0.31850223       0.07524063      -0.48620911
C        8.75706578       7.20106348       8.62695104      -0.17383852       0.44765493      -0.59980348      -0.40135949       0.01159497      -0.65093903       0.00749170
H        5.37158421       6.95621125       9.15383095       0.04982033      -0.22860155       0.08180148      -0.08754561      -0.17552436       0.35610219       0.06763588
H        7.57468502       8.30115853       5.72160385      -0.00750273      -0.09097702       0.18193400      -0.45431532       0.19727368      -0.93863381       0.04619833
C        7.53230263       7.87418646       6.69307418      -0.21873354       0.22080986      -0.41974344      -0.44963290      -0.20024974       0.58217741      -0.00855739
C        7.56875811       6.94133720       9.30437909       0.22585846       0.10470696       0.17096904      -0.42075770       0.50569273      -0.79268879      -0.02265395
C        6.32731815       7.11882850       8.68991962      -0.26473552       0.17808795      -0.05277269       0.66617860       0.65213141      -1.81917118       0.00590299
H        9.32898202       9.26520133       5.51260205       0.06651717      -0.01815997       0.12490153       0.46968746      -0.41576501       0.06601994       0.35962234
H        4.12434174       8.67124440       5.28619282      -0.04719048      -0.01604870      -0.04035461      -0.61238488       0.03442916      -0.32027292       0.38819097
18
Lattice="15.099991252438835 0.0 0.0 0.0 15.099991252438835 0.0 0.0 0.0 15.099991252438835" Properties=species:S:1:pos:R:3:momenta:R:3:forces:R:3:charge:R:1 energy=-1059.6504472632841 free_energy=-1059.6504472632841 dipole="-0.8626044027490983 0.5795646425298917 0.02044233614635031" stress="0.0 0.0 0.0 0.0 0.0 0.0 0.0 0.0 0.0" pbc="T T T"
H        9.68743732       7.07397062       9.09021001       0.11114226      -0.01491515      -0.13409103       0.44472705      -0.06848683       0.16702944       0.06300737
C        8.73755072       7.62761648       7.28711255      -0.37372057       0.15877184      -0.18358362       0.29468772       0.54096311      -0.91849249      -0.04794119
C       10.07284512       7.81970802       6.63066762      -1.29275233       0.35533866      -0.88860754       2.15330913      -0.74598103      -0.12087956       0.57482432
H        7.69310085       6.70593027      10.33337794      -0.07885146      -0.04464818      -0.05186451      -0.30631832      -0.29334762       0.47624728       0.04925166
O       10.14897748       8.72165525       5.63924820      -0.09340813      -0.05717120       0.88299809      -0.72041860       0.26386026       0.14383896      -0.48477832
C        6.36220309       7.59424469       7.37361744       0.50114496      -0.32824470       0.27735854      -1.91251877       0.10573551      -0.99916020      -0.02404574
C        5.00203208       7.77286879       6.72179064       0.97270208       0.45510329      -0.59463578       0.18426665       1.00575966      -0.90092767       0.57616190
O        5.03222832       8.54582611       5.59109205       0.36887506      -0.41110905       0.55487900       0.45290743      -0.41950273       0.53263586      -0.52517585
O        3.95199078       7.36758018       7.12432102      -0.76727684       0.12956065       0.49734436       0.05284042      -0.42051815       0.50747815      -0.50915492
O       11.09341031       7.21498153       6.93319556       0.56662609      -0.42302736       0.08399730      -1.98309242       0.62354492       0.02135776      -0.50262440
C        8.74779392       7.22323515       8.59630658      -0.36450991       0.04018943       0.09597653      -0.48171231      -0.44551538       0.94813887       0.00324926
H        5.46208810       6.82043581       9.18071433       0.01172050      -0.00926708      -0.01263153      -0.72011716       0.07274806       0.11187738       0.06577960
H        7.41570846       8.26102967       5.66637861      -0.16237627      -0.17824531       0.17046711       0.16212513       0.04676969      -0.36884686       0.05397083
C        7.51197003       7.87968902       6.66508971      -0.23321703       0.16268225      -0.73548354       0.36221417      -0.11382256       0.36030878      -0.01346610
C        7.57024954       6.97234065       9.30511840      -0.06486304       0.47679648       0.05940245       0.58603723       0.32828365      -0.54010632      -0.02251238
C        6.34775440       7.11846757       8.66965682       0.89703830      -0.22230832      -0.03773333       1.18832742      -0.26773130       0.52560889       0.00168724
H        9.35180573       9.27113614       5.57199589       0.09335417      -0.03338546       0.06013682       0.12056814      -0.08199828      -0.14359197       0.35864858
H        4.13110327       8.65127513       5.23601345      -0.09162786      -0.05612078      -0.04392932       0.12216710      -0.13076098       0.19748370       0.38311812
18
Lattice="15.099991252438835 0.0 0.0 0.0 15.099991252438835 0.0 0.0 0.0 15.099991252438835" Properties=species:S:1:pos:R:3:momenta:R:3:forces:R:3:charge:R:1 energy=-1059.6420122712634 free_energy=-1059.6420122712634 dipole="-0.7374368098911684 0.5622706745500823 -0.12289857316946964" stress="0.0 0.0 0.0 0.0 0.0 0.0 0.0 0.0 0.0" pbc="T T T"
H        9.70643294       7.08729082       9.01991934       0.02393644      -0.04756969       0.11933556       0.66934085      -0.16934155       0.52898513       0.06104597
C        8.71821919       7.64498081       7.26395923       0.01428527       0.22810517      -0.21544588       0.41037187      -0.29729140       0.11308300      -0.06569622
C       10.08580569       7.78412102       6.58953634       0.77993023      -0.68095745       0.06901592      -2.02140249       1.18105544       0.50429957       0.59510935
H        7.57686215       6.63353347      10.34367625      -0.07354653      -0.00052414      -0.00662831       0.32707711       0.08624844       0.17707845       0.04773513
O       10.13099631       8.73809114       5.67435885      -0.46877772       0.84256123       0.11038767       0.21145997       0.62117908      -0.94563179      -0.49345019
C        6.34520116       7.58507056       7.35360743      -0.64675085      -0.15742549      -0.45233328      -0.18534807      -0.08582820       0.05337931      -0.03516909
C        5.01529014       7.79857007       6.71110839      -0.71014339      -0.19322694       0.69635399      -0.09161609      -0.48485451       1.07395904       0.57974912
O        5.06293027       8.52230613       5.61757855       0.69432810      -0.18940073      -0.03336124      -0.80311878       0.46599166      -1.29473084      -0.50138486
O        3.96594453       7.39577221       7.14888879       1.06917643       0.73562200       0.15820041       0.07649016      -0.20301539       0.20649712      -0.53700830
O       11.04919827       7.20397640       6.92551539      -1.29511069      -0.24688565      -0.24448328       1.41850261      -1.40743910       0.59254575      -0.48845910
C        8.73493333       7.21953735       8.60900433       0.29179912       0.02669784      -0.14694102       0.49971725       0.42921716      -1.11344603       0.00321026